 Gaussian 09, Revision D.01,
 Gaussian 09:  ES64L-G09RevD.01 24-Apr-2013

 -----------------
 #RHF 6-31G(d',p')
 -----------------

 -------------------
 H2O.r1.25theta100.0
 -------------------
 Symbolic Z-matrix:
 Charge =  0 Multiplicity = 1

                         Standard orientation:
 ---------------------------------------------------------------------
 Center     Atomic      Atomic             Coordinates (Angstroms)
 Number     Number       Type             X           Y           Z
 ---------------------------------------------------------------------
      1          8           0        0.000000    0.000000    0.160697
      2          1           0        0.000000    0.957556   -0.642788
      3          1           0        0.000000   -0.957556   -0.642788
 ---------------------------------------------------------------------

 SCF Done:  E(RHF) =  -75.9115053006     A.U. after   10 cycles

 The electronic state is 1-A1.
 Alpha  occ. eigenvalues --  -20.60859  -1.24391  -0.57343  -0.52544  -0.49230
 Alpha virt. eigenvalues --    0.13656   0.20462   0.92008   0.95340   1.13675
 Alpha virt. eigenvalues --    1.16720   1.26647   1.42133   1.49443   1.67887
 Alpha virt. eigenvalues --    1.70660   1.75953   1.96028   2.09935   3.30246

 Mulliken charges:
               1
     1  O   -0.546693
     2  H    0.273347
     3  H    0.273347
 Sum of Mulliken charges =   0.00000

 Dipole moment (field-independent basis, Debye):
    X=              0.0000    Y=              0.0000    Z=             -2.3945  Tot=              2.3945
 Quadrupole moment (field-independent basis, Debye-Ang):
   XX=             -7.7657   YY=             -3.8337   ZZ=             -5.8611
   XY=              0.0000   XZ=              0.0000   YZ=              0.0000

 Normal termination of Gaussian 09 at Mon Sep 29 16:31:17 2014.
