 Gaussian 09, Revision D.01,
 Gaussian 09:  ES64L-G09RevD.01 24-Apr-2013

 -----------------
 #RHF 6-31G(d',p')
 -----------------

 ------------------
 H2O.r1.55theta90.0
 ------------------
 Symbolic Z-matrix:
 Charge =  0 Multiplicity = 1

                         Standard orientation:
 ---------------------------------------------------------------------
 Center     Atomic      Atomic             Coordinates (Angstroms)
 Number     Number       Type             X           Y           Z
 ---------------------------------------------------------------------
      1          8           0        0.000000    0.000000    0.219203
      2          1           0        0.000000    1.096016   -0.876812
      3          1           0        0.000000   -1.096016   -0.876812
 ---------------------------------------------------------------------

 SCF Done:  E(RHF) =  -75.7551649152     A.U. after   11 cycles

 The electronic state is 1-A1.
 Alpha  occ. eigenvalues --  -20.65033  -1.21285  -0.50334  -0.49096  -0.48281
 Alpha virt. eigenvalues --    0.06329   0.08866   0.90940   0.96779   1.11334
 Alpha virt. eigenvalues --    1.17733   1.26803   1.34143   1.50681   1.55648
 Alpha virt. eigenvalues --    1.62251   1.63914   1.72962   2.12001   3.21407

 Mulliken charges:
               1
     1  O   -0.449194
     2  H    0.224597
     3  H    0.224597
 Sum of Mulliken charges =   0.00000

 Dipole moment (field-independent basis, Debye):
    X=              0.0000    Y=              0.0000    Z=             -2.5453  Tot=              2.5453
 Quadrupole moment (field-independent basis, Debye-Ang):
   XX=             -8.2188   YY=             -4.0751   ZZ=             -5.1958
   XY=              0.0000   XZ=              0.0000   YZ=              0.0000

 Normal termination of Gaussian 09 at Mon Sep 29 16:37:23 2014.
