 Gaussian 09, Revision D.01,
 Gaussian 09:  ES64L-G09RevD.01 24-Apr-2013

 -----------------
 #RHF 6-31G(d',p')
 -----------------

 -------------------
 H2O.r1.00theta135.0
 -------------------
 Symbolic Z-matrix:
 Charge =  0 Multiplicity = 1

                         Standard orientation:
 ---------------------------------------------------------------------
 Center     Atomic      Atomic             Coordinates (Angstroms)
 Number     Number       Type             X           Y           Z
 ---------------------------------------------------------------------
      1          8           0        0.000000    0.000000    0.076537
      2          1           0        0.000000    0.923880   -0.306147
      3          1           0        0.000000   -0.923880   -0.306147
 ---------------------------------------------------------------------

 SCF Done:  E(RHF) =  -75.9960946451     A.U. after   10 cycles

 The electronic state is 1-A1.
 Alpha  occ. eigenvalues --  -20.54103  -1.29557  -0.71943  -0.50273  -0.47834
 Alpha virt. eigenvalues --    0.19440   0.29735   0.90761   1.08848   1.16953
 Alpha virt. eigenvalues --    1.18032   1.25728   1.44717   1.45471   1.82209
 Alpha virt. eigenvalues --    1.83232   1.84580   2.38647   2.54880   3.32901

 Mulliken charges:
               1
     1  O   -0.643278
     2  H    0.321639
     3  H    0.321639
 Sum of Mulliken charges =   0.00000

 Dipole moment (field-independent basis, Debye):
    X=              0.0000    Y=              0.0000    Z=             -1.5890  Tot=              1.5890
 Quadrupole moment (field-independent basis, Debye-Ang):
   XX=             -7.2559   YY=             -2.6015   ZZ=             -6.7735
   XY=              0.0000   XZ=              0.0000   YZ=              0.0000

 Normal termination of Gaussian 09 at Mon Sep 29 16:26:42 2014.
