 Gaussian 09, Revision D.01,
 Gaussian 09:  ES64L-G09RevD.01 24-Apr-2013

 -----------------
 #RHF 6-31G(d',p')
 -----------------

 -------------------
 H2O.r1.65theta142.0
 -------------------
 Symbolic Z-matrix:
 Charge =  0 Multiplicity = 1

                         Standard orientation:
 ---------------------------------------------------------------------
 Center     Atomic      Atomic             Coordinates (Angstroms)
 Number     Number       Type             X           Y           Z
 ---------------------------------------------------------------------
      1          8           0        0.000000    0.000000    0.107437
      2          1           0        0.000000    1.560106   -0.429750
      3          1           0        0.000000   -1.560106   -0.429750
 ---------------------------------------------------------------------

 SCF Done:  E(RHF) =  -75.6722871248     A.U. after   13 cycles

 The electronic state is 1-A1.
 Alpha  occ. eigenvalues --  -20.61414  -1.17667  -0.47399  -0.47053  -0.42610
 Alpha virt. eigenvalues --   -0.02009   0.11882   0.94013   0.94487   1.13719
 Alpha virt. eigenvalues --    1.16771   1.25080   1.35230   1.49188   1.49580
 Alpha virt. eigenvalues --    1.57904   1.60654   1.85651   2.03597   3.23217

 Mulliken charges:
               1
     1  O   -0.524836
     2  H    0.262418
     3  H    0.262418
 Sum of Mulliken charges =   0.00000

 Dipole moment (field-independent basis, Debye):
    X=              0.0000    Y=              0.0000    Z=             -1.3467  Tot=              1.3467
 Quadrupole moment (field-independent basis, Debye-Ang):
   XX=             -8.3087   YY=              0.5766   ZZ=             -7.4726
   XY=              0.0000   XZ=              0.0000   YZ=              0.0000

 Normal termination of Gaussian 09 at Mon Sep 29 16:40:01 2014.
