 Gaussian 09, Revision D.01,
 Gaussian 09:  ES64L-G09RevD.01 24-Apr-2013

 -----------------
 #RHF 6-31G(d',p')
 -----------------

 -------------------
 H2O.r1.20theta159.0
 -------------------
 Symbolic Z-matrix:
 Charge =  0 Multiplicity = 1

                         Standard orientation:
 ---------------------------------------------------------------------
 Center     Atomic      Atomic             Coordinates (Angstroms)
 Number     Number       Type             X           Y           Z
 ---------------------------------------------------------------------
      1          8           0        0.000000    0.000000    0.043737
      2          1           0        0.000000    1.179906   -0.174946
      3          1           0        0.000000   -1.179906   -0.174946
 ---------------------------------------------------------------------

 SCF Done:  E(RHF) =  -75.8747082889     A.U. after   11 cycles

 The electronic state is 1-A1.
 Alpha  occ. eigenvalues --  -20.52885  -1.20214  -0.61269  -0.44131  -0.43965
 Alpha virt. eigenvalues --    0.09095   0.26342   0.86689   0.98294   1.18312
 Alpha virt. eigenvalues --    1.18386   1.39613   1.44279   1.46005   1.72885
 Alpha virt. eigenvalues --    1.75009   1.75146   1.97154   2.34097   3.27265

 Mulliken charges:
               1
     1  O   -0.801692
     2  H    0.400846
     3  H    0.400846
 Sum of Mulliken charges =   0.00000

 Dipole moment (field-independent basis, Debye):
    X=              0.0000    Y=              0.0000    Z=             -0.9183  Tot=              0.9183
 Quadrupole moment (field-independent basis, Debye-Ang):
   XX=             -7.7017   YY=             -0.0758   ZZ=             -7.5369
   XY=              0.0000   XZ=              0.0000   YZ=              0.0000

 Normal termination of Gaussian 09 at Mon Sep 29 16:30:56 2014.
