 Gaussian 09, Revision D.01,
 Gaussian 09:  ES64L-G09RevD.01 24-Apr-2013

 -----------------
 #RHF 6-31G(d',p')
 -----------------

 ------------------
 H2O.r1.05theta92.0
 ------------------
 Symbolic Z-matrix:
 Charge =  0 Multiplicity = 1

                         Standard orientation:
 ---------------------------------------------------------------------
 Center     Atomic      Atomic             Coordinates (Angstroms)
 Number     Number       Type             X           Y           Z
 ---------------------------------------------------------------------
      1          8           0        0.000000    0.000000    0.145878
      2          1           0        0.000000    0.755307   -0.583513
      3          1           0        0.000000   -0.755307   -0.583513
 ---------------------------------------------------------------------

 SCF Done:  E(RHF) =  -76.0010562733     A.U. after   10 cycles

 The electronic state is 1-A1.
 Alpha  occ. eigenvalues --  -20.58084  -1.30798  -0.63688  -0.57714  -0.49760
 Alpha virt. eigenvalues --    0.19039   0.27397   0.95236   0.99477   1.15955
 Alpha virt. eigenvalues --    1.18567   1.26027   1.36231   1.53870   1.64163
 Alpha virt. eigenvalues --    1.66431   1.94245   2.31572   2.34421   3.42625

 Mulliken charges:
               1
     1  O   -0.518848
     2  H    0.259424
     3  H    0.259424
 Sum of Mulliken charges =   0.00000

 Dipole moment (field-independent basis, Debye):
    X=              0.0000    Y=              0.0000    Z=             -2.4309  Tot=              2.4309
 Quadrupole moment (field-independent basis, Debye-Ang):
   XX=             -7.3412   YY=             -4.6176   ZZ=             -5.6486
   XY=              0.0000   XZ=              0.0000   YZ=              0.0000

 Normal termination of Gaussian 09 at Mon Sep 29 16:27:15 2014.
