 Gaussian 09, Revision D.01,
 Gaussian 09:  ES64L-G09RevD.01 24-Apr-2013

 -----------------
 #RHF 6-31G(d',p')
 -----------------

 ------------------
 H2O.r1.65theta81.0
 ------------------
 Symbolic Z-matrix:
 Charge =  0 Multiplicity = 1

                         Standard orientation:
 ---------------------------------------------------------------------
 Center     Atomic      Atomic             Coordinates (Angstroms)
 Number     Number       Type             X           Y           Z
 ---------------------------------------------------------------------
      1          8           0        0.000000    0.000000    0.250934
      2          1           0        0.000000    1.071589   -1.003736
      3          1           0        0.000000   -1.071589   -1.003736
 ---------------------------------------------------------------------

 SCF Done:  E(RHF) =  -75.7076289235     A.U. after   12 cycles

 The electronic state is 1-A1.
 Alpha  occ. eigenvalues --  -20.66024  -1.21048  -0.50841  -0.47675  -0.46797
 Alpha virt. eigenvalues --    0.04775   0.04992   0.91902   0.97584   1.11239
 Alpha virt. eigenvalues --    1.17793   1.23250   1.28363   1.50972   1.51529
 Alpha virt. eigenvalues --    1.59243   1.64051   1.71577   2.12136   3.19574

 Mulliken charges:
               1
     1  O   -0.402081
     2  H    0.201041
     3  H    0.201041
 Sum of Mulliken charges =   0.00000

 Dipole moment (field-independent basis, Debye):
    X=              0.0000    Y=              0.0000    Z=             -2.6181  Tot=              2.6181
 Quadrupole moment (field-independent basis, Debye-Ang):
   XX=             -8.3337   YY=             -4.6482   ZZ=             -4.6649
   XY=              0.0000   XZ=              0.0000   YZ=              0.0000

 Normal termination of Gaussian 09 at Mon Sep 29 16:39:19 2014.
