 Gaussian 09, Revision D.01,
 Gaussian 09:  ES64L-G09RevD.01 24-Apr-2013

 -----------------
 #RHF 6-31G(d',p')
 -----------------

 -------------------
 H2O.r1.20theta144.0
 -------------------
 Symbolic Z-matrix:
 Charge =  0 Multiplicity = 1

                         Standard orientation:
 ---------------------------------------------------------------------
 Center     Atomic      Atomic             Coordinates (Angstroms)
 Number     Number       Type             X           Y           Z
 ---------------------------------------------------------------------
      1          8           0        0.000000    0.000000    0.074164
      2          1           0        0.000000    1.141268   -0.296656
      3          1           0        0.000000   -1.141268   -0.296656
 ---------------------------------------------------------------------

 SCF Done:  E(RHF) =  -75.8963564636     A.U. after   11 cycles

 The electronic state is 1-A1.
 Alpha  occ. eigenvalues --  -20.55336  -1.21911  -0.61599  -0.46044  -0.45854
 Alpha virt. eigenvalues --    0.10922   0.25463   0.87993   0.99103   1.17020
 Alpha virt. eigenvalues --    1.17127   1.33185   1.44601   1.44952   1.73059
 Alpha virt. eigenvalues --    1.74606   1.74897   2.03633   2.22449   3.27377

 Mulliken charges:
               1
     1  O   -0.715058
     2  H    0.357529
     3  H    0.357529
 Sum of Mulliken charges =   0.00000

 Dipole moment (field-independent basis, Debye):
    X=              0.0000    Y=              0.0000    Z=             -1.4142  Tot=              1.4142
 Quadrupole moment (field-independent basis, Debye-Ang):
   XX=             -7.6908   YY=             -1.0292   ZZ=             -7.2451
   XY=              0.0000   XZ=              0.0000   YZ=              0.0000

 Normal termination of Gaussian 09 at Mon Sep 29 16:30:47 2014.
