 Gaussian 09, Revision D.01,
 Gaussian 09:  ES64L-G09RevD.01 24-Apr-2013

 -----------------
 #RHF 6-31G(d',p')
 -----------------

 -------------------
 H2O.r0.85theta105.0
 -------------------
 Symbolic Z-matrix:
 Charge =  0 Multiplicity = 1

                         Standard orientation:
 ---------------------------------------------------------------------
 Center     Atomic      Atomic             Coordinates (Angstroms)
 Number     Number       Type             X           Y           Z
 ---------------------------------------------------------------------
      1          8           0        0.000000    0.000000    0.103489
      2          1           0        0.000000    0.674350   -0.413958
      3          1           0        0.000000   -0.674350   -0.413958
 ---------------------------------------------------------------------

 SCF Done:  E(RHF) =  -76.0010338550     A.U. after   10 cycles

 The electronic state is 1-A1.
 Alpha  occ. eigenvalues --  -20.53486  -1.40218  -0.76716  -0.58698  -0.50566
 Alpha virt. eigenvalues --    0.23398   0.32858   1.04594   1.07987   1.15897
 Alpha virt. eigenvalues --    1.18990   1.28121   1.42934   1.54741   1.73364
 Alpha virt. eigenvalues --    1.76027   2.11219   2.77510   2.81139   3.59908

 Mulliken charges:
               1
     1  O   -0.473747
     2  H    0.236874
     3  H    0.236874
 Sum of Mulliken charges =   0.00000

 Dipole moment (field-independent basis, Debye):
    X=              0.0000    Y=              0.0000    Z=             -2.0504  Tot=              2.0504
 Quadrupole moment (field-independent basis, Debye-Ang):
   XX=             -6.8572   YY=             -4.3284   ZZ=             -5.9183
   XY=              0.0000   XZ=              0.0000   YZ=              0.0000

 Normal termination of Gaussian 09 at Mon Sep 29 16:23:20 2014.
