 Gaussian 09, Revision D.01,
 Gaussian 09:  ES64L-G09RevD.01 24-Apr-2013

 -----------------
 #RHF 6-31G(d',p')
 -----------------

 -------------------
 H2O.r1.50theta117.0
 -------------------
 Symbolic Z-matrix:
 Charge =  0 Multiplicity = 1

                         Standard orientation:
 ---------------------------------------------------------------------
 Center     Atomic      Atomic             Coordinates (Angstroms)
 Number     Number       Type             X           Y           Z
 ---------------------------------------------------------------------
      1          8           0        0.000000    0.000000    0.156750
      2          1           0        0.000000    1.278960   -0.626998
      3          1           0        0.000000   -1.278960   -0.626998
 ---------------------------------------------------------------------

 SCF Done:  E(RHF) =  -75.7703142853     A.U. after   11 cycles

 The electronic state is 1-A1.
 Alpha  occ. eigenvalues --  -20.62754  -1.20267  -0.51005  -0.48864  -0.46461
 Alpha virt. eigenvalues --    0.05050   0.13437   0.91100   0.96285   1.12455
 Alpha virt. eigenvalues --    1.16721   1.32941   1.35262   1.49440   1.57180
 Alpha virt. eigenvalues --    1.59487   1.64880   1.85147   2.01951   3.22866

 Mulliken charges:
               1
     1  O   -0.514879
     2  H    0.257439
     3  H    0.257439
 Sum of Mulliken charges =   0.00000

 Dipole moment (field-independent basis, Debye):
    X=              0.0000    Y=              0.0000    Z=             -2.0394  Tot=              2.0394
 Quadrupole moment (field-independent basis, Debye-Ang):
   XX=             -8.1497   YY=             -1.9665   ZZ=             -6.4844
   XY=              0.0000   XZ=              0.0000   YZ=              0.0000

 Normal termination of Gaussian 09 at Mon Sep 29 16:36:39 2014.
