 Gaussian 09, Revision D.01,
 Gaussian 09:  ES64L-G09RevD.01 24-Apr-2013

 -----------------
 #RHF 6-31G(d',p')
 -----------------

 ------------------
 H2O.r1.10theta72.0
 ------------------
 Symbolic Z-matrix:
 Charge =  0 Multiplicity = 1

                         Standard orientation:
 ---------------------------------------------------------------------
 Center     Atomic      Atomic             Coordinates (Angstroms)
 Number     Number       Type             X           Y           Z
 ---------------------------------------------------------------------
      1          8           0        0.000000    0.000000    0.177984
      2          1           0        0.000000    0.646564   -0.711935
      3          1           0        0.000000   -0.646564   -0.711935
 ---------------------------------------------------------------------

 SCF Done:  E(RHF) =  -75.9626089198     A.U. after   10 cycles

 The electronic state is 1-A1.
 Alpha  occ. eigenvalues --  -20.59696  -1.30365  -0.60681  -0.58142  -0.50283
 Alpha virt. eigenvalues --    0.17089   0.25008   0.93239   0.96946   1.14383
 Alpha virt. eigenvalues --    1.20577   1.25297   1.26945   1.51465   1.62767
 Alpha virt. eigenvalues --    1.65302   1.95042   2.27118   2.40238   3.34418

 Mulliken charges:
               1
     1  O   -0.488460
     2  H    0.244230
     3  H    0.244230
 Sum of Mulliken charges =   0.00000

 Dipole moment (field-independent basis, Debye):
    X=              0.0000    Y=              0.0000    Z=             -2.7070  Tot=              2.7070
 Quadrupole moment (field-independent basis, Debye-Ang):
   XX=             -7.4414   YY=             -5.6136   ZZ=             -4.9984
   XY=              0.0000   XZ=              0.0000   YZ=              0.0000

 Normal termination of Gaussian 09 at Mon Sep 29 16:28:01 2014.
