 Gaussian 09, Revision D.01,
 Gaussian 09:  ES64L-G09RevD.01 24-Apr-2013

 -----------------
 #RHF 6-31G(d',p')
 -----------------

 -------------------
 H2O.r0.80theta160.0
 -------------------
 Symbolic Z-matrix:
 Charge =  0 Multiplicity = 1

                         Standard orientation:
 ---------------------------------------------------------------------
 Center     Atomic      Atomic             Coordinates (Angstroms)
 Number     Number       Type             X           Y           Z
 ---------------------------------------------------------------------
      1          8           0        0.000000    0.000000    0.027784
      2          1           0        0.000000    0.787846   -0.111135
      3          1           0        0.000000   -0.787846   -0.111135
 ---------------------------------------------------------------------

 SCF Done:  E(RHF) =  -75.9265737657     A.U. after    9 cycles

 The electronic state is 1-A1.
 Alpha  occ. eigenvalues --  -20.50305  -1.39167  -0.88570  -0.50396  -0.49687
 Alpha virt. eigenvalues --    0.25203   0.32035   0.91902   1.15465   1.15749
 Alpha virt. eigenvalues --    1.27639   1.38405   1.44680   1.50148   1.92752
 Alpha virt. eigenvalues --    2.06278   2.06802   2.82090   3.24894   3.25510

 Mulliken charges:
               1
     1  O   -0.558403
     2  H    0.279202
     3  H    0.279202
 Sum of Mulliken charges =   0.00000

 Dipole moment (field-independent basis, Debye):
    X=              0.0000    Y=              0.0000    Z=             -0.7077  Tot=              0.7077
 Quadrupole moment (field-independent basis, Debye-Ang):
   XX=             -6.7689   YY=             -3.0441   ZZ=             -6.6986
   XY=              0.0000   XZ=              0.0000   YZ=              0.0000

 Normal termination of Gaussian 09 at Mon Sep 29 16:22:51 2014.
