 Gaussian 09, Revision D.01,
 Gaussian 09:  ES64L-G09RevD.01 24-Apr-2013

 -----------------
 #RHF 6-31G(d',p')
 -----------------

 -------------------
 H2O.r1.20theta160.0
 -------------------
 Symbolic Z-matrix:
 Charge =  0 Multiplicity = 1

                         Standard orientation:
 ---------------------------------------------------------------------
 Center     Atomic      Atomic             Coordinates (Angstroms)
 Number     Number       Type             X           Y           Z
 ---------------------------------------------------------------------
      1          8           0        0.000000    0.000000    0.041676
      2          1           0        0.000000    1.181769   -0.166702
      3          1           0        0.000000   -1.181769   -0.166702
 ---------------------------------------------------------------------

 SCF Done:  E(RHF) =  -75.8734277971     A.U. after   11 cycles

 The electronic state is 1-A1.
 Alpha  occ. eigenvalues --  -20.52723  -1.20102  -0.61233  -0.44017  -0.43850
 Alpha virt. eigenvalues --    0.08988   0.26394   0.86622   0.98245   1.18398
 Alpha virt. eigenvalues --    1.18469   1.39984   1.44244   1.46101   1.72886
 Alpha virt. eigenvalues --    1.75029   1.75167   1.96800   2.34865   3.27289

 Mulliken charges:
               1
     1  O   -0.807431
     2  H    0.403716
     3  H    0.403716
 Sum of Mulliken charges =   0.00000

 Dipole moment (field-independent basis, Debye):
    X=              0.0000    Y=              0.0000    Z=             -0.8805  Tot=              0.8805
 Quadrupole moment (field-independent basis, Debye-Ang):
   XX=             -7.7023   YY=             -0.0175   ZZ=             -7.5520
   XY=              0.0000   XZ=              0.0000   YZ=              0.0000

 Normal termination of Gaussian 09 at Mon Sep 29 16:30:57 2014.
