 Gaussian 09, Revision D.01,
 Gaussian 09:  ES64L-G09RevD.01 24-Apr-2013

 -----------------
 #RHF 6-31G(d',p')
 -----------------

 ------------------
 H2O.r0.95theta95.0
 ------------------
 Symbolic Z-matrix:
 Charge =  0 Multiplicity = 1

                         Standard orientation:
 ---------------------------------------------------------------------
 Center     Atomic      Atomic             Coordinates (Angstroms)
 Number     Number       Type             X           Y           Z
 ---------------------------------------------------------------------
      1          8           0        0.000000    0.000000    0.128362
      2          1           0        0.000000    0.700413   -0.513449
      3          1           0        0.000000   -0.700413   -0.513449
 ---------------------------------------------------------------------

 SCF Done:  E(RHF) =  -76.0213513472     A.U. after   10 cycles

 The electronic state is 1-A1.
 Alpha  occ. eigenvalues --  -20.56021  -1.35238  -0.68849  -0.58996  -0.50105
 Alpha virt. eigenvalues --    0.21253   0.30649   0.97864   1.04318   1.16642
 Alpha virt. eigenvalues --    1.19761   1.26369   1.37531   1.55347   1.66283
 Alpha virt. eigenvalues --    1.66724   2.04559   2.50808   2.56013   3.52464

 Mulliken charges:
               1
     1  O   -0.498043
     2  H    0.249021
     3  H    0.249021
 Sum of Mulliken charges =   0.00000

 Dipole moment (field-independent basis, Debye):
    X=              0.0000    Y=              0.0000    Z=             -2.3056  Tot=              2.3056
 Quadrupole moment (field-independent basis, Debye-Ang):
   XX=             -7.1033   YY=             -4.5869   ZZ=             -5.7335
   XY=              0.0000   XZ=              0.0000   YZ=              0.0000

 Normal termination of Gaussian 09 at Mon Sep 29 16:25:16 2014.
