 Gaussian 09, Revision D.01,
 Gaussian 09:  ES64L-G09RevD.01 24-Apr-2013

 -----------------
 #RHF 6-31G(d',p')
 -----------------

 -------------------
 H2O.r0.85theta114.0
 -------------------
 Symbolic Z-matrix:
 Charge =  0 Multiplicity = 1

                         Standard orientation:
 ---------------------------------------------------------------------
 Center     Atomic      Atomic             Coordinates (Angstroms)
 Number     Number       Type             X           Y           Z
 ---------------------------------------------------------------------
      1          8           0        0.000000    0.000000    0.092589
      2          1           0        0.000000    0.712870   -0.370355
      3          1           0        0.000000   -0.712870   -0.370355
 ---------------------------------------------------------------------

 SCF Done:  E(RHF) =  -76.0007646591     A.U. after    9 cycles

 The electronic state is 1-A1.
 Alpha  occ. eigenvalues --  -20.53070  -1.39322  -0.78692  -0.56810  -0.50275
 Alpha virt. eigenvalues --    0.23666   0.32621   1.05611   1.08616   1.16098
 Alpha virt. eigenvalues --    1.16125   1.27702   1.45157   1.51637   1.79795
 Alpha virt. eigenvalues --    1.81837   2.05412   2.78620   2.82383   3.53598

 Mulliken charges:
               1
     1  O   -0.493276
     2  H    0.246638
     3  H    0.246638
 Sum of Mulliken charges =   0.00000

 Dipole moment (field-independent basis, Debye):
    X=              0.0000    Y=              0.0000    Z=             -1.9041  Tot=              1.9041
 Quadrupole moment (field-independent basis, Debye-Ang):
   XX=             -6.8637   YY=             -4.0096   ZZ=             -6.1130
   XY=              0.0000   XZ=              0.0000   YZ=              0.0000

 Normal termination of Gaussian 09 at Mon Sep 29 16:23:26 2014.
