 Gaussian 09, Revision D.01,
 Gaussian 09:  ES64L-G09RevD.01 24-Apr-2013

 -----------------
 #RHF 6-31G(d',p')
 -----------------

 -------------------
 H2O.r0.75theta150.0
 -------------------
 Symbolic Z-matrix:
 Charge =  0 Multiplicity = 1

                         Standard orientation:
 ---------------------------------------------------------------------
 Center     Atomic      Atomic             Coordinates (Angstroms)
 Number     Number       Type             X           Y           Z
 ---------------------------------------------------------------------
      1          8           0        0.000000    0.000000    0.038823
      2          1           0        0.000000    0.724444   -0.155291
      3          1           0        0.000000   -0.724444   -0.155291
 ---------------------------------------------------------------------

 SCF Done:  E(RHF) =  -75.8696087594     A.U. after    9 cycles

 The electronic state is 1-A1.
 Alpha  occ. eigenvalues --  -20.50003  -1.43151  -0.92269  -0.52441  -0.50781
 Alpha virt. eigenvalues --    0.26217   0.32635   0.98640   1.13304   1.13864
 Alpha virt. eigenvalues --    1.31301   1.34970   1.46923   1.50671   2.00527
 Alpha virt. eigenvalues --    2.09184   2.10680   3.03839   3.30778   3.35265

 Mulliken charges:
               1
     1  O   -0.478794
     2  H    0.239397
     3  H    0.239397
 Sum of Mulliken charges =   0.00000

 Dipole moment (field-independent basis, Debye):
    X=              0.0000    Y=              0.0000    Z=             -0.9858  Tot=              0.9858
 Quadrupole moment (field-independent basis, Debye-Ang):
   XX=             -6.6232   YY=             -3.4533   ZZ=             -6.4788
   XY=              0.0000   XZ=              0.0000   YZ=              0.0000

 Normal termination of Gaussian 09 at Mon Sep 29 16:21:36 2014.
