 Gaussian 09, Revision D.01,
 Gaussian 09:  ES64L-G09RevD.01 24-Apr-2013

 -----------------
 #RHF 6-31G(d',p')
 -----------------

 -------------------
 H2O.r1.30theta108.0
 -------------------
 Symbolic Z-matrix:
 Charge =  0 Multiplicity = 1

                         Standard orientation:
 ---------------------------------------------------------------------
 Center     Atomic      Atomic             Coordinates (Angstroms)
 Number     Number       Type             X           Y           Z
 ---------------------------------------------------------------------
      1          8           0        0.000000    0.000000    0.152824
      2          1           0        0.000000    1.051722   -0.611297
      3          1           0        0.000000   -1.051722   -0.611297
 ---------------------------------------------------------------------

 SCF Done:  E(RHF) =  -75.8822124811     A.U. after   11 cycles

 The electronic state is 1-A1.
 Alpha  occ. eigenvalues --  -20.60974  -1.22996  -0.56374  -0.50468  -0.48860
 Alpha virt. eigenvalues --    0.11680   0.19335   0.90824   0.96290   1.13485
 Alpha virt. eigenvalues --    1.16380   1.27265   1.42551   1.48545   1.68799
 Alpha virt. eigenvalues --    1.69227   1.71573   1.90860   2.08752   3.27389

 Mulliken charges:
               1
     1  O   -0.556827
     2  H    0.278413
     3  H    0.278413
 Sum of Mulliken charges =   0.00000

 Dipole moment (field-independent basis, Debye):
    X=              0.0000    Y=              0.0000    Z=             -2.2555  Tot=              2.2555
 Quadrupole moment (field-independent basis, Debye-Ang):
   XX=             -7.8558   YY=             -3.1661   ZZ=             -6.1541
   XY=              0.0000   XZ=              0.0000   YZ=              0.0000

 Normal termination of Gaussian 09 at Mon Sep 29 16:32:23 2014.
