 Gaussian 09, Revision D.01,
 Gaussian 09:  ES64L-G09RevD.01 24-Apr-2013

 -----------------
 #RHF 6-31G(d',p')
 -----------------

 -------------------
 H2O.r1.25theta112.0
 -------------------
 Symbolic Z-matrix:
 Charge =  0 Multiplicity = 1

                         Standard orientation:
 ---------------------------------------------------------------------
 Center     Atomic      Atomic             Coordinates (Angstroms)
 Number     Number       Type             X           Y           Z
 ---------------------------------------------------------------------
      1          8           0        0.000000    0.000000    0.139798
      2          1           0        0.000000    1.036297   -0.559193
      3          1           0        0.000000   -1.036297   -0.559193
 ---------------------------------------------------------------------

 SCF Done:  E(RHF) =  -75.9068670588     A.U. after   11 cycles

 The electronic state is 1-A1.
 Alpha  occ. eigenvalues --  -20.59923  -1.23626  -0.58375  -0.50615  -0.48551
 Alpha virt. eigenvalues --    0.12873   0.21475   0.91026   0.96969   1.14286
 Alpha virt. eigenvalues --    1.16155   1.26472   1.42926   1.47836   1.70233
 Alpha virt. eigenvalues --    1.72216   1.73298   1.98130   2.10670   3.28858

 Mulliken charges:
               1
     1  O   -0.577431
     2  H    0.288715
     3  H    0.288715
 Sum of Mulliken charges =   0.00000

 Dipole moment (field-independent basis, Debye):
    X=              0.0000    Y=              0.0000    Z=             -2.1768  Tot=              2.1768
 Quadrupole moment (field-independent basis, Debye-Ang):
   XX=             -7.7670   YY=             -3.0083   ZZ=             -6.3070
   XY=              0.0000   XZ=              0.0000   YZ=              0.0000

 Normal termination of Gaussian 09 at Mon Sep 29 16:31:26 2014.
