 Gaussian 09, Revision D.01,
 Gaussian 09:  ES64L-G09RevD.01 24-Apr-2013

 -----------------
 #RHF 6-31G(d',p')
 -----------------

 ------------------
 H2O.r1.70theta88.0
 ------------------
 Symbolic Z-matrix:
 Charge =  0 Multiplicity = 1

                         Standard orientation:
 ---------------------------------------------------------------------
 Center     Atomic      Atomic             Coordinates (Angstroms)
 Number     Number       Type             X           Y           Z
 ---------------------------------------------------------------------
      1          8           0        0.000000    0.000000    0.244576
      2          1           0        0.000000    1.180919   -0.978302
      3          1           0        0.000000   -1.180919   -0.978302
 ---------------------------------------------------------------------

 SCF Done:  E(RHF) =  -75.6850682562     A.U. after   12 cycles

 The electronic state is 1-A1.
 Alpha  occ. eigenvalues --  -20.66293  -1.20657  -0.50798  -0.46787  -0.45538
 Alpha virt. eigenvalues --    0.03510   0.04079   0.91868   0.98849   1.11665
 Alpha virt. eigenvalues --    1.17767   1.23146   1.25276   1.50509   1.53212
 Alpha virt. eigenvalues --    1.57352   1.58941   1.73515   2.11567   3.19102

 Mulliken charges:
               1
     1  O   -0.396237
     2  H    0.198118
     3  H    0.198118
 Sum of Mulliken charges =   0.00000

 Dipole moment (field-independent basis, Debye):
    X=              0.0000    Y=              0.0000    Z=             -2.5367  Tot=              2.5367
 Quadrupole moment (field-independent basis, Debye-Ang):
   XX=             -8.3689   YY=             -4.0060   ZZ=             -4.9227
   XY=              0.0000   XZ=              0.0000   YZ=              0.0000

 Normal termination of Gaussian 09 at Mon Sep 29 16:40:25 2014.
