 Gaussian 09, Revision D.01,
 Gaussian 09:  ES64L-G09RevD.01 24-Apr-2013

 -----------------
 #RHF 6-31G(d',p')
 -----------------

 ------------------
 H2O.r0.90theta75.0
 ------------------
 Symbolic Z-matrix:
 Charge =  0 Multiplicity = 1

                         Standard orientation:
 ---------------------------------------------------------------------
 Center     Atomic      Atomic             Coordinates (Angstroms)
 Number     Number       Type             X           Y           Z
 ---------------------------------------------------------------------
      1          8           0        0.000000    0.000000    0.142804
      2          1           0        0.000000    0.547885   -0.571214
      3          1           0        0.000000   -0.547885   -0.571214
 ---------------------------------------------------------------------

 SCF Done:  E(RHF) =  -75.9873645122     A.U. after   10 cycles

 The electronic state is 1-A1.
 Alpha  occ. eigenvalues --  -20.55723  -1.40600  -0.66128  -0.64379  -0.51089
 Alpha virt. eigenvalues --    0.21073   0.32211   0.95500   1.06889   1.16091
 Alpha virt. eigenvalues --    1.20856   1.28468   1.35027   1.52501   1.66824
 Alpha virt. eigenvalues --    1.67837   2.22294   2.67123   2.75589   3.50629

 Mulliken charges:
               1
     1  O   -0.454184
     2  H    0.227092
     3  H    0.227092
 Sum of Mulliken charges =   0.00000

 Dipole moment (field-independent basis, Debye):
    X=              0.0000    Y=              0.0000    Z=             -2.5099  Tot=              2.5099
 Quadrupole moment (field-independent basis, Debye-Ang):
   XX=             -6.9717   YY=             -5.4424   ZZ=             -5.2222
   XY=              0.0000   XZ=              0.0000   YZ=              0.0000

 Normal termination of Gaussian 09 at Mon Sep 29 16:24:04 2014.
