 Gaussian 09, Revision D.01,
 Gaussian 09:  ES64L-G09RevD.01 24-Apr-2013

 -----------------
 #RHF 6-31G(d',p')
 -----------------

 -------------------
 H2O.r1.15theta112.0
 -------------------
 Symbolic Z-matrix:
 Charge =  0 Multiplicity = 1

                         Standard orientation:
 ---------------------------------------------------------------------
 Center     Atomic      Atomic             Coordinates (Angstroms)
 Number     Number       Type             X           Y           Z
 ---------------------------------------------------------------------
      1          8           0        0.000000    0.000000    0.128614
      2          1           0        0.000000    0.953393   -0.514457
      3          1           0        0.000000   -0.953393   -0.514457
 ---------------------------------------------------------------------

 SCF Done:  E(RHF) =  -75.9584648347     A.U. after   10 cycles

 The electronic state is 1-A1.
 Alpha  occ. eigenvalues --  -20.58431  -1.25990  -0.62275  -0.52166  -0.48576
 Alpha virt. eigenvalues --    0.15982   0.24922   0.92616   0.98120   1.15599
 Alpha virt. eigenvalues --    1.16167   1.25007   1.43090   1.47503   1.71912
 Alpha virt. eigenvalues --    1.75949   1.78588   2.13263   2.19277   3.33349

 Mulliken charges:
               1
     1  O   -0.586404
     2  H    0.293202
     3  H    0.293202
 Sum of Mulliken charges =   0.00000

 Dipole moment (field-independent basis, Debye):
    X=              0.0000    Y=              0.0000    Z=             -2.1596  Tot=              2.1596
 Quadrupole moment (field-independent basis, Debye-Ang):
   XX=             -7.5708   YY=             -3.2790   ZZ=             -6.2891
   XY=              0.0000   XZ=              0.0000   YZ=              0.0000

 Normal termination of Gaussian 09 at Mon Sep 29 16:29:27 2014.
