 Gaussian 09, Revision D.01,
 Gaussian 09:  ES64L-G09RevD.01 24-Apr-2013

 -----------------
 #RHF 6-31G(d',p')
 -----------------

 -------------------
 H2O.r0.95theta112.0
 -------------------
 Symbolic Z-matrix:
 Charge =  0 Multiplicity = 1

                         Standard orientation:
 ---------------------------------------------------------------------
 Center     Atomic      Atomic             Coordinates (Angstroms)
 Number     Number       Type             X           Y           Z
 ---------------------------------------------------------------------
      1          8           0        0.000000    0.000000    0.106247
      2          1           0        0.000000    0.787586   -0.424987
      3          1           0        0.000000   -0.787586   -0.424987
 ---------------------------------------------------------------------

 SCF Done:  E(RHF) =  -76.0230584326     A.U. after   10 cycles

 The electronic state is 1-A1.
 Alpha  occ. eigenvalues --  -20.55087  -1.33767  -0.72132  -0.55466  -0.49439
 Alpha virt. eigenvalues --    0.21546   0.30688   0.99972   1.03404   1.16401
 Alpha virt. eigenvalues --    1.17102   1.25310   1.43626   1.49507   1.76226
 Alpha virt. eigenvalues --    1.76879   1.94823   2.52675   2.54582   3.46570

 Mulliken charges:
               1
     1  O   -0.542392
     2  H    0.271196
     3  H    0.271196
 Sum of Mulliken charges =   0.00000

 Dipole moment (field-independent basis, Debye):
    X=              0.0000    Y=              0.0000    Z=             -2.0409  Tot=              2.0409
 Quadrupole moment (field-independent basis, Debye-Ang):
   XX=             -7.1148   YY=             -3.8285   ZZ=             -6.1752
   XY=              0.0000   XZ=              0.0000   YZ=              0.0000

 Normal termination of Gaussian 09 at Mon Sep 29 16:25:27 2014.
