 Gaussian 09, Revision D.01,
 Gaussian 09:  ES64L-G09RevD.01 24-Apr-2013

 -----------------
 #RHF 6-31G(d',p')
 -----------------

 -------------------
 H2O.r1.35theta159.0
 -------------------
 Symbolic Z-matrix:
 Charge =  0 Multiplicity = 1

                         Standard orientation:
 ---------------------------------------------------------------------
 Center     Atomic      Atomic             Coordinates (Angstroms)
 Number     Number       Type             X           Y           Z
 ---------------------------------------------------------------------
      1          8           0        0.000000    0.000000    0.049204
      2          1           0        0.000000    1.327394   -0.196814
      3          1           0        0.000000   -1.327394   -0.196814
 ---------------------------------------------------------------------

 SCF Done:  E(RHF) =  -75.7916669049     A.U. after   11 cycles

 The electronic state is 1-A1.
 Alpha  occ. eigenvalues --  -20.54151  -1.17119  -0.54732  -0.43648  -0.42554
 Alpha virt. eigenvalues --    0.03350   0.22608   0.89078   0.93874   1.16727
 Alpha virt. eigenvalues --    1.17304   1.42959   1.42985   1.45970   1.64696
 Alpha virt. eigenvalues --    1.67914   1.69627   1.82907   2.21781   3.27325

 Mulliken charges:
               1
     1  O   -0.773011
     2  H    0.386505
     3  H    0.386505
 Sum of Mulliken charges =   0.00000

 Dipole moment (field-independent basis, Debye):
    X=              0.0000    Y=              0.0000    Z=             -0.9155  Tot=              0.9155
 Quadrupole moment (field-independent basis, Debye-Ang):
   XX=             -7.9586   YY=              0.9302   ZZ=             -7.7371
   XY=              0.0000   XZ=              0.0000   YZ=              0.0000

 Normal termination of Gaussian 09 at Mon Sep 29 16:34:03 2014.
