 Gaussian 09, Revision D.01,
 Gaussian 09:  ES64L-G09RevD.01 24-Apr-2013

 -----------------
 #RHF 6-31G(d',p')
 -----------------

 ------------------
 H2O.r1.65theta92.0
 ------------------
 Symbolic Z-matrix:
 Charge =  0 Multiplicity = 1

                         Standard orientation:
 ---------------------------------------------------------------------
 Center     Atomic      Atomic             Coordinates (Angstroms)
 Number     Number       Type             X           Y           Z
 ---------------------------------------------------------------------
      1          8           0        0.000000    0.000000    0.229237
      2          1           0        0.000000    1.186911   -0.916949
      3          1           0        0.000000   -1.186911   -0.916949
 ---------------------------------------------------------------------

 SCF Done:  E(RHF) =  -75.7074538734     A.U. after   11 cycles

 The electronic state is 1-A1.
 Alpha  occ. eigenvalues --  -20.65823  -1.20708  -0.50546  -0.47400  -0.46320
 Alpha virt. eigenvalues --    0.04061   0.06021   0.91444   0.98256   1.11583
 Alpha virt. eigenvalues --    1.17840   1.25231   1.27923   1.50506   1.54413
 Alpha virt. eigenvalues --    1.57482   1.60302   1.74335   2.12013   3.19797

 Mulliken charges:
               1
     1  O   -0.418376
     2  H    0.209188
     3  H    0.209188
 Sum of Mulliken charges =   0.00000

 Dipole moment (field-independent basis, Debye):
    X=              0.0000    Y=              0.0000    Z=             -2.4962  Tot=              2.4962
 Quadrupole moment (field-independent basis, Debye-Ang):
   XX=             -8.3199   YY=             -3.7461   ZZ=             -5.1812
   XY=              0.0000   XZ=              0.0000   YZ=              0.0000

 Normal termination of Gaussian 09 at Mon Sep 29 16:39:27 2014.
