 Gaussian 09, Revision D.01,
 Gaussian 09:  ES64L-G09RevD.01 24-Apr-2013

 -----------------
 #RHF 6-31G(d',p')
 -----------------

 ------------------
 H2O.r1.90theta84.0
 ------------------
 Symbolic Z-matrix:
 Charge =  0 Multiplicity = 1

                         Standard orientation:
 ---------------------------------------------------------------------
 Center     Atomic      Atomic             Coordinates (Angstroms)
 Number     Number       Type             X           Y           Z
 ---------------------------------------------------------------------
      1          8           0        0.000000    0.000000    0.282395
      2          1           0        0.000000    1.271348   -1.129580
      3          1           0        0.000000   -1.271348   -1.129580
 ---------------------------------------------------------------------

 SCF Done:  E(RHF) =  -75.6049984125     A.U. after   15 cycles

 The electronic state is 1-A1.
 Alpha  occ. eigenvalues --  -20.67097  -1.20372  -0.51390  -0.46387  -0.41153
 Alpha virt. eigenvalues --   -0.02227   0.02026   0.93489   1.01593   1.12708
 Alpha virt. eigenvalues --    1.14146   1.16775   1.19923   1.49998   1.51144
 Alpha virt. eigenvalues --    1.53124   1.54636   1.72283   2.01613   3.17776

 Mulliken charges:
               1
     1  O   -0.321396
     2  H    0.160698
     3  H    0.160698
 Sum of Mulliken charges =   0.00000

 Dipole moment (field-independent basis, Debye):
    X=              0.0000    Y=              0.0000    Z=             -2.4086  Tot=              2.4086
 Quadrupole moment (field-independent basis, Debye-Ang):
   XX=             -8.5246   YY=             -4.1539   ZZ=             -4.5335
   XY=              0.0000   XZ=              0.0000   YZ=              0.0000

 Normal termination of Gaussian 09 at Mon Sep 29 16:44:24 2014.
