 Gaussian 09, Revision D.01,
 Gaussian 09:  ES64L-G09RevD.01 24-Apr-2013

 -----------------
 #RHF 6-31G(d',p')
 -----------------

 -------------------
 H2O.r1.60theta135.0
 -------------------
 Symbolic Z-matrix:
 Charge =  0 Multiplicity = 1

                         Standard orientation:
 ---------------------------------------------------------------------
 Center     Atomic      Atomic             Coordinates (Angstroms)
 Number     Number       Type             X           Y           Z
 ---------------------------------------------------------------------
      1          8           0        0.000000    0.000000    0.122459
      2          1           0        0.000000    1.478207   -0.489835
      3          1           0        0.000000   -1.478207   -0.489835
 ---------------------------------------------------------------------

 SCF Done:  E(RHF) =  -75.7034037182     A.U. after   12 cycles

 The electronic state is 1-A1.
 Alpha  occ. eigenvalues --  -20.61896  -1.18459  -0.48503  -0.47875  -0.43565
 Alpha virt. eigenvalues --    0.00141   0.12436   0.93339   0.94590   1.13224
 Alpha virt. eigenvalues --    1.16675   1.28160   1.36513   1.49318   1.50764
 Alpha virt. eigenvalues --    1.58328   1.62163   1.89683   1.98066   3.22922

 Mulliken charges:
               1
     1  O   -0.523623
     2  H    0.261812
     3  H    0.261812
 Sum of Mulliken charges =   0.00000

 Dipole moment (field-independent basis, Debye):
    X=              0.0000    Y=              0.0000    Z=             -1.5607  Tot=              1.5607
 Quadrupole moment (field-independent basis, Debye-Ang):
   XX=             -8.2612   YY=             -0.1822   ZZ=             -7.2124
   XY=              0.0000   XZ=              0.0000   YZ=              0.0000

 Normal termination of Gaussian 09 at Mon Sep 29 16:38:56 2014.
