 Gaussian 09, Revision D.01,
 Gaussian 09:  ES64L-G09RevD.01 24-Apr-2013

 -----------------
 #RHF 6-31G(d',p')
 -----------------

 -------------------
 H2O.r1.00theta150.0
 -------------------
 Symbolic Z-matrix:
 Charge =  0 Multiplicity = 1

                         Standard orientation:
 ---------------------------------------------------------------------
 Center     Atomic      Atomic             Coordinates (Angstroms)
 Number     Number       Type             X           Y           Z
 ---------------------------------------------------------------------
      1          8           0        0.000000    0.000000    0.051764
      2          1           0        0.000000    0.965926   -0.207055
      3          1           0        0.000000   -0.965926   -0.207055
 ---------------------------------------------------------------------

 SCF Done:  E(RHF) =  -75.9775961334     A.U. after   10 cycles

 The electronic state is 1-A1.
 Alpha  occ. eigenvalues --  -20.52682  -1.28357  -0.72743  -0.47914  -0.46876
 Alpha virt. eigenvalues --    0.18497   0.29831   0.87130   1.10088   1.18197
 Alpha virt. eigenvalues --    1.18773   1.31812   1.43462   1.46780   1.81289
 Alpha virt. eigenvalues --    1.84952   1.85995   2.32894   2.65364   3.28192

 Mulliken charges:
               1
     1  O   -0.702534
     2  H    0.351267
     3  H    0.351267
 Sum of Mulliken charges =   0.00000

 Dipole moment (field-independent basis, Debye):
    X=              0.0000    Y=              0.0000    Z=             -1.1578  Tot=              1.1578
 Quadrupole moment (field-independent basis, Debye-Ang):
   XX=             -7.2706   YY=             -1.9711   ZZ=             -7.0480
   XY=              0.0000   XZ=              0.0000   YZ=              0.0000

 Normal termination of Gaussian 09 at Mon Sep 29 16:26:52 2014.
