 Gaussian 09, Revision D.01,
 Gaussian 09:  ES64L-G09RevD.01 24-Apr-2013

 -----------------
 #RHF 6-31G(d',p')
 -----------------

 ------------------
 H2O.r1.20theta95.0
 ------------------
 Symbolic Z-matrix:
 Charge =  0 Multiplicity = 1

                         Standard orientation:
 ---------------------------------------------------------------------
 Center     Atomic      Atomic             Coordinates (Angstroms)
 Number     Number       Type             X           Y           Z
 ---------------------------------------------------------------------
      1          8           0        0.000000    0.000000    0.162142
      2          1           0        0.000000    0.884733   -0.648567
      3          1           0        0.000000   -0.884733   -0.648567
 ---------------------------------------------------------------------

 SCF Done:  E(RHF) =  -75.9373354024     A.U. after   10 cycles

 The electronic state is 1-A1.
 Alpha  occ. eigenvalues --  -20.60426  -1.25798  -0.58475  -0.54283  -0.49437
 Alpha virt. eigenvalues --    0.15219   0.21972   0.93571   0.94655   1.14078
 Alpha virt. eigenvalues --    1.17096   1.26514   1.40336   1.50665   1.66477
 Alpha virt. eigenvalues --    1.69926   1.80068   2.04527   2.12444   3.33094

 Mulliken charges:
               1
     1  O   -0.539118
     2  H    0.269559
     3  H    0.269559
 Sum of Mulliken charges =   0.00000

 Dipole moment (field-independent basis, Debye):
    X=              0.0000    Y=              0.0000    Z=             -2.4623  Tot=              2.4623
 Quadrupole moment (field-independent basis, Debye-Ang):
   XX=             -7.6682   YY=             -4.2473   ZZ=             -5.6977
   XY=              0.0000   XZ=              0.0000   YZ=              0.0000

 Normal termination of Gaussian 09 at Mon Sep 29 16:30:15 2014.
