 Gaussian 09, Revision D.01,
 Gaussian 09:  ES64L-G09RevD.01 24-Apr-2013

 -----------------
 #RHF 6-31G(d',p')
 -----------------

 -------------------
 H2O.r1.00theta151.0
 -------------------
 Symbolic Z-matrix:
 Charge =  0 Multiplicity = 1

                         Standard orientation:
 ---------------------------------------------------------------------
 Center     Atomic      Atomic             Coordinates (Angstroms)
 Number     Number       Type             X           Y           Z
 ---------------------------------------------------------------------
      1          8           0        0.000000    0.000000    0.050076
      2          1           0        0.000000    0.968148   -0.200304
      3          1           0        0.000000   -0.968148   -0.200304
 ---------------------------------------------------------------------

 SCF Done:  E(RHF) =  -75.9763889462     A.U. after   10 cycles

 The electronic state is 1-A1.
 Alpha  occ. eigenvalues --  -20.52589  -1.28281  -0.72775  -0.47779  -0.46813
 Alpha virt. eigenvalues --    0.18434   0.29835   0.86934   1.10086   1.18280
 Alpha virt. eigenvalues --    1.18822   1.32328   1.43402   1.46867   1.81180
 Alpha virt. eigenvalues --    1.85089   1.86053   2.32472   2.66094   3.27945

 Mulliken charges:
               1
     1  O   -0.706419
     2  H    0.353209
     3  H    0.353209
 Sum of Mulliken charges =   0.00000

 Dipole moment (field-independent basis, Debye):
    X=              0.0000    Y=              0.0000    Z=             -1.1253  Tot=              1.1253
 Quadrupole moment (field-independent basis, Debye-Ang):
   XX=             -7.2715   YY=             -1.9334   ZZ=             -7.0631
   XY=              0.0000   XZ=              0.0000   YZ=              0.0000

 Normal termination of Gaussian 09 at Mon Sep 29 16:26:52 2014.
