 Gaussian 09, Revision D.01,
 Gaussian 09:  ES64L-G09RevD.01 24-Apr-2013

 -----------------
 #RHF 6-31G(d',p')
 -----------------

 ------------------
 H2O.r1.15theta73.0
 ------------------
 Symbolic Z-matrix:
 Charge =  0 Multiplicity = 1

                         Standard orientation:
 ---------------------------------------------------------------------
 Center     Atomic      Atomic             Coordinates (Angstroms)
 Number     Number       Type             X           Y           Z
 ---------------------------------------------------------------------
      1          8           0        0.000000    0.000000    0.184887
      2          1           0        0.000000    0.684046   -0.739548
      3          1           0        0.000000   -0.684046   -0.739548
 ---------------------------------------------------------------------

 SCF Done:  E(RHF) =  -75.9446851919     A.U. after   10 cycles

 The electronic state is 1-A1.
 Alpha  occ. eigenvalues --  -20.60496  -1.28528  -0.59303  -0.56857  -0.50196
 Alpha virt. eigenvalues --    0.16024   0.22961   0.93081   0.95806   1.13596
 Alpha virt. eigenvalues --    1.20492   1.24583   1.27031   1.53514   1.60676
 Alpha virt. eigenvalues --    1.65372   1.88993   2.18334   2.32174   3.31802

 Mulliken charges:
               1
     1  O   -0.492603
     2  H    0.246302
     3  H    0.246302
 Sum of Mulliken charges =   0.00000

 Dipole moment (field-independent basis, Debye):
    X=              0.0000    Y=              0.0000    Z=             -2.7178  Tot=              2.7178
 Quadrupole moment (field-independent basis, Debye-Ang):
   XX=             -7.5521   YY=             -5.5608   ZZ=             -4.9791
   XY=              0.0000   XZ=              0.0000   YZ=              0.0000

 Normal termination of Gaussian 09 at Mon Sep 29 16:29:01 2014.
