 Gaussian 09, Revision D.01,
 Gaussian 09:  ES64L-G09RevD.01 24-Apr-2013

 -----------------
 #RHF 6-31G(d',p')
 -----------------

 -------------------
 H2O.r1.35theta124.0
 -------------------
 Symbolic Z-matrix:
 Charge =  0 Multiplicity = 1

                         Standard orientation:
 ---------------------------------------------------------------------
 Center     Atomic      Atomic             Coordinates (Angstroms)
 Number     Number       Type             X           Y           Z
 ---------------------------------------------------------------------
      1          8           0        0.000000    0.000000    0.126757
      2          1           0        0.000000    1.191979   -0.507029
      3          1           0        0.000000   -1.191979   -0.507029
 ---------------------------------------------------------------------

 SCF Done:  E(RHF) =  -75.8422196553     A.U. after   11 cycles

 The electronic state is 1-A1.
 Alpha  occ. eigenvalues --  -20.60105  -1.21151  -0.55524  -0.47862  -0.47404
 Alpha virt. eigenvalues --    0.08440   0.19146   0.90203   0.96510   1.13811
 Alpha virt. eigenvalues --    1.16042   1.31323   1.41429   1.47816   1.66083
 Alpha virt. eigenvalues --    1.66261   1.69055   1.93934   2.01368   3.25400

 Mulliken charges:
               1
     1  O   -0.589318
     2  H    0.294659
     3  H    0.294659
 Sum of Mulliken charges =   0.00000

 Dipole moment (field-independent basis, Debye):
    X=              0.0000    Y=              0.0000    Z=             -1.9141  Tot=              1.9141
 Quadrupole moment (field-independent basis, Debye-Ang):
   XX=             -7.9410   YY=             -1.8444   ZZ=             -6.7593
   XY=              0.0000   XZ=              0.0000   YZ=              0.0000

 Normal termination of Gaussian 09 at Mon Sep 29 16:33:37 2014.
