 Gaussian 09, Revision D.01,
 Gaussian 09:  ES64L-G09RevD.01 24-Apr-2013

 -----------------
 #RHF 6-31G(d',p')
 -----------------

 -------------------
 H2O.r1.45theta100.0
 -------------------
 Symbolic Z-matrix:
 Charge =  0 Multiplicity = 1

                         Standard orientation:
 ---------------------------------------------------------------------
 Center     Atomic      Atomic             Coordinates (Angstroms)
 Number     Number       Type             X           Y           Z
 ---------------------------------------------------------------------
      1          8           0        0.000000    0.000000    0.186408
      2          1           0        0.000000    1.110764   -0.745634
      3          1           0        0.000000   -1.110764   -0.745634
 ---------------------------------------------------------------------

 SCF Done:  E(RHF) =  -75.8049956028     A.U. after   11 cycles

 The electronic state is 1-A1.
 Alpha  occ. eigenvalues --  -20.63477  -1.21602  -0.51635  -0.49646  -0.49095
 Alpha virt. eigenvalues --    0.08084   0.13236   0.90523   0.96234   1.11930
 Alpha virt. eigenvalues --    1.17167   1.28714   1.39020   1.49944   1.60413
 Alpha virt. eigenvalues --    1.65192   1.65197   1.77709   2.09360   3.23417

 Mulliken charges:
               1
     1  O   -0.497721
     2  H    0.248860
     3  H    0.248860
 Sum of Mulliken charges =   0.00000

 Dipole moment (field-independent basis, Debye):
    X=              0.0000    Y=              0.0000    Z=             -2.3940  Tot=              2.3940
 Quadrupole moment (field-independent basis, Debye-Ang):
   XX=             -8.0886   YY=             -3.4516   ZZ=             -5.7507
   XY=              0.0000   XZ=              0.0000   YZ=              0.0000

 Normal termination of Gaussian 09 at Mon Sep 29 16:35:27 2014.
