 Gaussian 09, Revision D.01,
 Gaussian 09:  ES64L-G09RevD.01 24-Apr-2013

 -----------------
 #RHF 6-31G(d',p')
 -----------------

 -------------------
 H2O.r0.75theta120.0
 -------------------
 Symbolic Z-matrix:
 Charge =  0 Multiplicity = 1

                         Standard orientation:
 ---------------------------------------------------------------------
 Center     Atomic      Atomic             Coordinates (Angstroms)
 Number     Number       Type             X           Y           Z
 ---------------------------------------------------------------------
      1          8           0        0.000000    0.000000    0.075000
      2          1           0        0.000000    0.649519   -0.300000
      3          1           0        0.000000   -0.649519   -0.300000
 ---------------------------------------------------------------------

 SCF Done:  E(RHF) =  -75.8916437634     A.U. after    9 cycles

 The electronic state is 1-A1.
 Alpha  occ. eigenvalues --  -20.50923  -1.45703  -0.87284  -0.57422  -0.51373
 Alpha virt. eigenvalues --    0.25445   0.33674   1.09804   1.13334   1.15827
 Alpha virt. eigenvalues --    1.15995   1.32998   1.48257   1.53507   1.89322
 Alpha virt. eigenvalues --    1.93636   2.15042   3.10059   3.18455   3.56970

 Mulliken charges:
               1
     1  O   -0.426415
     2  H    0.213208
     3  H    0.213208
 Sum of Mulliken charges =   0.00000

 Dipole moment (field-independent basis, Debye):
    X=              0.0000    Y=              0.0000    Z=             -1.6821  Tot=              1.6821
 Quadrupole moment (field-independent basis, Debye-Ang):
   XX=             -6.6034   YY=             -4.0787   ZZ=             -6.0671
   XY=              0.0000   XZ=              0.0000   YZ=              0.0000

 Normal termination of Gaussian 09 at Mon Sep 29 16:21:17 2014.
