 Gaussian 09, Revision D.01,
 Gaussian 09:  ES64L-G09RevD.01 24-Apr-2013

 -----------------
 #RHF 6-31G(d',p')
 -----------------

 -------------------
 H2O.r0.95theta155.0
 -------------------
 Symbolic Z-matrix:
 Charge =  0 Multiplicity = 1

                         Standard orientation:
 ---------------------------------------------------------------------
 Center     Atomic      Atomic             Coordinates (Angstroms)
 Number     Number       Type             X           Y           Z
 ---------------------------------------------------------------------
      1          8           0        0.000000    0.000000    0.041124
      2          1           0        0.000000    0.927481   -0.164494
      3          1           0        0.000000   -0.927481   -0.164494
 ---------------------------------------------------------------------

 SCF Done:  E(RHF) =  -75.9819222265     A.U. after   10 cycles

 The electronic state is 1-A1.
 Alpha  occ. eigenvalues --  -20.51877  -1.30461  -0.76337  -0.48118  -0.47284
 Alpha virt. eigenvalues --    0.20254   0.30533   0.86898   1.14086   1.18248
 Alpha virt. eigenvalues --    1.18701   1.34245   1.43293   1.47709   1.83271
 Alpha virt. eigenvalues --    1.89416   1.89909   2.41296   2.82265   3.27000

 Mulliken charges:
               1
     1  O   -0.689341
     2  H    0.344670
     3  H    0.344670
 Sum of Mulliken charges =   0.00000

 Dipole moment (field-independent basis, Debye):
    X=              0.0000    Y=              0.0000    Z=             -0.9627  Tot=              0.9627
 Quadrupole moment (field-independent basis, Debye-Ang):
   XX=             -7.1556   YY=             -2.1532   ZZ=             -7.0134
   XY=              0.0000   XZ=              0.0000   YZ=              0.0000

 Normal termination of Gaussian 09 at Mon Sep 29 16:25:55 2014.
