 Gaussian 09, Revision D.01,
 Gaussian 09:  ES64L-G09RevD.01 24-Apr-2013

 -----------------
 #RHF 6-31G(d',p')
 -----------------

 ------------------
 H2O.r0.95theta94.0
 ------------------
 Symbolic Z-matrix:
 Charge =  0 Multiplicity = 1

                         Standard orientation:
 ---------------------------------------------------------------------
 Center     Atomic      Atomic             Coordinates (Angstroms)
 Number     Number       Type             X           Y           Z
 ---------------------------------------------------------------------
      1          8           0        0.000000    0.000000    0.129580
      2          1           0        0.000000    0.694786   -0.518319
      3          1           0        0.000000   -0.694786   -0.518319
 ---------------------------------------------------------------------

 SCF Done:  E(RHF) =  -76.0207258308     A.U. after   10 cycles

 The electronic state is 1-A1.
 Alpha  occ. eigenvalues --  -20.56068  -1.35332  -0.68630  -0.59208  -0.50141
 Alpha virt. eigenvalues --    0.21220   0.30646   0.97616   1.04496   1.16618
 Alpha virt. eigenvalues --    1.20088   1.26426   1.36920   1.55776   1.65609
 Alpha virt. eigenvalues --    1.66328   2.05146   2.50842   2.56293   3.52108

 Mulliken charges:
               1
     1  O   -0.495960
     2  H    0.247980
     3  H    0.247980
 Sum of Mulliken charges =   0.00000

 Dipole moment (field-independent basis, Debye):
    X=              0.0000    Y=              0.0000    Z=             -2.3195  Tot=              2.3195
 Quadrupole moment (field-independent basis, Debye-Ang):
   XX=             -7.1027   YY=             -4.6315   ZZ=             -5.7067
   XY=              0.0000   XZ=              0.0000   YZ=              0.0000

 Normal termination of Gaussian 09 at Mon Sep 29 16:25:15 2014.
