 Gaussian 09, Revision D.01,
 Gaussian 09:  ES64L-G09RevD.01 24-Apr-2013

 -----------------
 #RHF 6-31G(d',p')
 -----------------

 -------------------
 H2O.r1.25theta114.0
 -------------------
 Symbolic Z-matrix:
 Charge =  0 Multiplicity = 1

                         Standard orientation:
 ---------------------------------------------------------------------
 Center     Atomic      Atomic             Coordinates (Angstroms)
 Number     Number       Type             X           Y           Z
 ---------------------------------------------------------------------
      1          8           0        0.000000    0.000000    0.136160
      2          1           0        0.000000    1.048338   -0.544639
      3          1           0        0.000000   -1.048338   -0.544639
 ---------------------------------------------------------------------

 SCF Done:  E(RHF) =  -75.9054995297     A.U. after   11 cycles

 The electronic state is 1-A1.
 Alpha  occ. eigenvalues --  -20.59740  -1.23487  -0.58517  -0.50291  -0.48422
 Alpha virt. eigenvalues --    0.12698   0.21646   0.90868   0.97195   1.14393
 Alpha virt. eigenvalues --    1.16097   1.26576   1.42951   1.47630   1.70521
 Alpha virt. eigenvalues --    1.72298   1.72949   1.98837   2.10420   3.28644

 Mulliken charges:
               1
     1  O   -0.583184
     2  H    0.291592
     3  H    0.291592
 Sum of Mulliken charges =   0.00000

 Dipole moment (field-independent basis, Debye):
    X=              0.0000    Y=              0.0000    Z=             -2.1372  Tot=              2.1372
 Quadrupole moment (field-independent basis, Debye-Ang):
   XX=             -7.7674   YY=             -2.8696   ZZ=             -6.3789
   XY=              0.0000   XZ=              0.0000   YZ=              0.0000

 Normal termination of Gaussian 09 at Mon Sep 29 16:31:28 2014.
