 Gaussian 09, Revision D.01,
 Gaussian 09:  ES64L-G09RevD.01 24-Apr-2013

 -----------------
 #RHF 6-31G(d',p')
 -----------------

 -------------------
 H2O.r1.10theta104.0
 -------------------
 Symbolic Z-matrix:
 Charge =  0 Multiplicity = 1

                         Standard orientation:
 ---------------------------------------------------------------------
 Center     Atomic      Atomic             Coordinates (Angstroms)
 Number     Number       Type             X           Y           Z
 ---------------------------------------------------------------------
      1          8           0        0.000000    0.000000    0.135446
      2          1           0        0.000000    0.866812   -0.541782
      3          1           0        0.000000   -0.866812   -0.541782
 ---------------------------------------------------------------------

 SCF Done:  E(RHF) =  -75.9844049430     A.U. after   10 cycles

 The electronic state is 1-A1.
 Alpha  occ. eigenvalues --  -20.58247  -1.28091  -0.63471  -0.54470  -0.49105
 Alpha virt. eigenvalues --    0.17776   0.26154   0.95316   0.97064   1.15851
 Alpha virt. eigenvalues --    1.16655   1.25242   1.41956   1.49280   1.70026
 Alpha virt. eigenvalues --    1.73210   1.84458   2.20693   2.25287   3.38451

 Mulliken charges:
               1
     1  O   -0.559421
     2  H    0.279710
     3  H    0.279710
 Sum of Mulliken charges =   0.00000

 Dipole moment (field-independent basis, Debye):
    X=              0.0000    Y=              0.0000    Z=             -2.2811  Tot=              2.2811
 Quadrupole moment (field-independent basis, Debye-Ang):
   XX=             -7.4603   YY=             -3.8797   ZZ=             -6.0212
   XY=              0.0000   XZ=              0.0000   YZ=              0.0000

 Normal termination of Gaussian 09 at Mon Sep 29 16:28:22 2014.
