 Gaussian 09, Revision D.01,
 Gaussian 09:  ES64L-G09RevD.01 24-Apr-2013

 -----------------
 #RHF 6-31G(d',p')
 -----------------

 -------------------
 H2O.r0.80theta142.0
 -------------------
 Symbolic Z-matrix:
 Charge =  0 Multiplicity = 1

                         Standard orientation:
 ---------------------------------------------------------------------
 Center     Atomic      Atomic             Coordinates (Angstroms)
 Number     Number       Type             X           Y           Z
 ---------------------------------------------------------------------
      1          8           0        0.000000    0.000000    0.052091
      2          1           0        0.000000    0.756415   -0.208364
      3          1           0        0.000000   -0.756415   -0.208364
 ---------------------------------------------------------------------

 SCF Done:  E(RHF) =  -75.9427835856     A.U. after    9 cycles

 The electronic state is 1-A1.
 Alpha  occ. eigenvalues --  -20.50929  -1.40226  -0.86996  -0.52587  -0.50096
 Alpha virt. eigenvalues --    0.25118   0.32427   0.97537   1.14589   1.15466
 Alpha virt. eigenvalues --    1.27217   1.28966   1.46700   1.49035   1.97784
 Alpha virt. eigenvalues --    1.99596   2.00724   2.88124   3.20791   3.35218

 Mulliken charges:
               1
     1  O   -0.520638
     2  H    0.260319
     3  H    0.260319
 Sum of Mulliken charges =   0.00000

 Dipole moment (field-independent basis, Debye):
    X=              0.0000    Y=              0.0000    Z=             -1.2465  Tot=              1.2465
 Quadrupole moment (field-independent basis, Debye-Ang):
   XX=             -6.7559   YY=             -3.3735   ZZ=             -6.5093
   XY=              0.0000   XZ=              0.0000   YZ=              0.0000

 Normal termination of Gaussian 09 at Mon Sep 29 16:22:37 2014.
