 Gaussian 09, Revision D.01,
 Gaussian 09:  ES64L-G09RevD.01 24-Apr-2013

 -----------------
 #RHF 6-31G(d',p')
 -----------------

 -------------------
 H2O.r1.10theta132.0
 -------------------
 Symbolic Z-matrix:
 Charge =  0 Multiplicity = 1

                         Standard orientation:
 ---------------------------------------------------------------------
 Center     Atomic      Atomic             Coordinates (Angstroms)
 Number     Number       Type             X           Y           Z
 ---------------------------------------------------------------------
      1          8           0        0.000000    0.000000    0.089482
      2          1           0        0.000000    1.004900   -0.357928
      3          1           0        0.000000   -1.004900   -0.357928
 ---------------------------------------------------------------------

 SCF Done:  E(RHF) =  -75.9630530557     A.U. after   11 cycles

 The electronic state is 1-A1.
 Alpha  occ. eigenvalues --  -20.55711  -1.25930  -0.66156  -0.49313  -0.47346
 Alpha virt. eigenvalues --    0.16075   0.27433   0.89837   1.03037   1.16687
 Alpha virt. eigenvalues --    1.17296   1.26048   1.44431   1.44998   1.77155
 Alpha virt. eigenvalues --    1.78116   1.79970   2.22527   2.31311   3.30808

 Mulliken charges:
               1
     1  O   -0.656505
     2  H    0.328253
     3  H    0.328253
 Sum of Mulliken charges =   0.00000

 Dipole moment (field-independent basis, Debye):
    X=              0.0000    Y=              0.0000    Z=             -1.7136  Tot=              1.7136
 Quadrupole moment (field-independent basis, Debye-Ang):
   XX=             -7.4780   YY=             -2.2672   ZZ=             -6.8359
   XY=              0.0000   XZ=              0.0000   YZ=              0.0000

 Normal termination of Gaussian 09 at Mon Sep 29 16:28:41 2014.
