 Gaussian 09, Revision D.01,
 Gaussian 09:  ES64L-G09RevD.01 24-Apr-2013

 -----------------
 #RHF 6-31G(d',p')
 -----------------

 ------------------
 H2O.r0.80theta95.0
 ------------------
 Symbolic Z-matrix:
 Charge =  0 Multiplicity = 1

                         Standard orientation:
 ---------------------------------------------------------------------
 Center     Atomic      Atomic             Coordinates (Angstroms)
 Number     Number       Type             X           Y           Z
 ---------------------------------------------------------------------
      1          8           0        0.000000    0.000000    0.108094
      2          1           0        0.000000    0.589822   -0.432378
      3          1           0        0.000000   -0.589822   -0.432378
 ---------------------------------------------------------------------

 SCF Done:  E(RHF) =  -75.9540566963     A.U. after    9 cycles

 The electronic state is 1-A1.
 Alpha  occ. eigenvalues --  -20.52802  -1.44994  -0.77169  -0.61802  -0.51392
 Alpha virt. eigenvalues --    0.23700   0.34046   1.02676   1.10131   1.14471
 Alpha virt. eigenvalues --    1.28753   1.30701   1.39615   1.61104   1.69454
 Alpha virt. eigenvalues --    1.71548   2.25161   2.87035   3.01917   3.68874

 Mulliken charges:
               1
     1  O   -0.431573
     2  H    0.215786
     3  H    0.215786
 Sum of Mulliken charges =   0.00000

 Dipole moment (field-independent basis, Debye):
    X=              0.0000    Y=              0.0000    Z=             -2.1295  Tot=              2.1295
 Quadrupole moment (field-independent basis, Debye-Ang):
   XX=             -6.7240   YY=             -4.7332   ZZ=             -5.6577
   XY=              0.0000   XZ=              0.0000   YZ=              0.0000

 Normal termination of Gaussian 09 at Mon Sep 29 16:22:04 2014.
