 Gaussian 09, Revision D.01,
 Gaussian 09:  ES64L-G09RevD.01 24-Apr-2013

 -----------------
 #RHF 6-31G(d',p')
 -----------------

 ------------------
 H2O.r1.25theta70.0
 ------------------
 Symbolic Z-matrix:
 Charge =  0 Multiplicity = 1

                         Standard orientation:
 ---------------------------------------------------------------------
 Center     Atomic      Atomic             Coordinates (Angstroms)
 Number     Number       Type             X           Y           Z
 ---------------------------------------------------------------------
      1          8           0        0.000000    0.000000    0.204788
      2          1           0        0.000000    0.716971   -0.819152
      3          1           0        0.000000   -0.716971   -0.819152
 ---------------------------------------------------------------------

 SCF Done:  E(RHF) =  -75.8959611504     A.U. after   11 cycles

 The electronic state is 1-A1.
 Alpha  occ. eigenvalues --  -20.62022  -1.25966  -0.57431  -0.53927  -0.50277
 Alpha virt. eigenvalues --    0.13537   0.18773   0.93124   0.93235   1.11851
 Alpha virt. eigenvalues --    1.19476   1.24563   1.27332   1.54129   1.59834
 Alpha virt. eigenvalues --    1.65278   1.79767   2.04887   2.23406   3.26996

 Mulliken charges:
               1
     1  O   -0.483901
     2  H    0.241951
     3  H    0.241951
 Sum of Mulliken charges =   0.00000

 Dipole moment (field-independent basis, Debye):
    X=              0.0000    Y=              0.0000    Z=             -2.7665  Tot=              2.7665
 Quadrupole moment (field-independent basis, Debye-Ang):
   XX=             -7.7538   YY=             -5.6999   ZZ=             -4.7660
   XY=              0.0000   XZ=              0.0000   YZ=              0.0000

 Normal termination of Gaussian 09 at Mon Sep 29 16:30:58 2014.
