 Gaussian 09, Revision D.01,
 Gaussian 09:  ES64L-G09RevD.01 24-Apr-2013

 -----------------
 #RHF 6-31G(d',p')
 -----------------

 -------------------
 H2O.r1.15theta113.0
 -------------------
 Symbolic Z-matrix:
 Charge =  0 Multiplicity = 1

                         Standard orientation:
 ---------------------------------------------------------------------
 Center     Atomic      Atomic             Coordinates (Angstroms)
 Number     Number       Type             X           Y           Z
 ---------------------------------------------------------------------
      1          8           0        0.000000    0.000000    0.126946
      2          1           0        0.000000    0.958969   -0.507782
      3          1           0        0.000000   -0.958969   -0.507782
 ---------------------------------------------------------------------

 SCF Done:  E(RHF) =  -75.9578583384     A.U. after   10 cycles

 The electronic state is 1-A1.
 Alpha  occ. eigenvalues --  -20.58345  -1.25918  -0.62372  -0.51987  -0.48515
 Alpha virt. eigenvalues --    0.15920   0.24985   0.92465   0.98323   1.15650
 Alpha virt. eigenvalues --    1.16142   1.24974   1.43153   1.47353   1.72150
 Alpha virt. eigenvalues --    1.76165   1.78356   2.13560   2.19281   3.33128

 Mulliken charges:
               1
     1  O   -0.589502
     2  H    0.294751
     3  H    0.294751
 Sum of Mulliken charges =   0.00000

 Dipole moment (field-independent basis, Debye):
    X=              0.0000    Y=              0.0000    Z=             -2.1406  Tot=              2.1406
 Quadrupole moment (field-independent basis, Debye-Ang):
   XX=             -7.5712   YY=             -3.2169   ZZ=             -6.3215
   XY=              0.0000   XZ=              0.0000   YZ=              0.0000

 Normal termination of Gaussian 09 at Mon Sep 29 16:29:28 2014.
