 Gaussian 09, Revision D.01,
 Gaussian 09:  ES64L-G09RevD.01 24-Apr-2013

 -----------------
 #RHF 6-31G(d',p')
 -----------------

 -------------------
 H2O.r1.75theta120.0
 -------------------
 Symbolic Z-matrix:
 Charge =  0 Multiplicity = 1

                         Standard orientation:
 ---------------------------------------------------------------------
 Center     Atomic      Atomic             Coordinates (Angstroms)
 Number     Number       Type             X           Y           Z
 ---------------------------------------------------------------------
      1          8           0        0.000000    0.000000    0.175000
      2          1           0        0.000000    1.515544   -0.700000
      3          1           0        0.000000   -1.515544   -0.700000
 ---------------------------------------------------------------------

 SCF Done:  E(RHF) =  -75.6517574263     A.U. after   13 cycles

 The electronic state is 1-A1.
 Alpha  occ. eigenvalues --  -20.64875  -1.19162  -0.49581  -0.45455  -0.43495
 Alpha virt. eigenvalues --   -0.01076   0.06764   0.94282   0.97271   1.12903
 Alpha virt. eigenvalues --    1.17821   1.20437   1.26625   1.50014   1.50203
 Alpha virt. eigenvalues --    1.54784   1.58313   1.88514   1.95944   3.20603

 Mulliken charges:
               1
     1  O   -0.426815
     2  H    0.213408
     3  H    0.213408
 Sum of Mulliken charges =   0.00000

 Dipole moment (field-independent basis, Debye):
    X=              0.0000    Y=              0.0000    Z=             -1.9107  Tot=              1.9107
 Quadrupole moment (field-independent basis, Debye-Ang):
   XX=             -8.3882   YY=             -1.0305   ZZ=             -6.5476
   XY=              0.0000   XZ=              0.0000   YZ=              0.0000

 Normal termination of Gaussian 09 at Mon Sep 29 16:41:46 2014.
