 Gaussian 09, Revision D.01,
 Gaussian 09:  ES64L-G09RevD.01 24-Apr-2013

 -----------------
 #RHF 6-31G(d',p')
 -----------------

 -------------------
 H2O.r1.10theta100.0
 -------------------
 Symbolic Z-matrix:
 Charge =  0 Multiplicity = 1

                         Standard orientation:
 ---------------------------------------------------------------------
 Center     Atomic      Atomic             Coordinates (Angstroms)
 Number     Number       Type             X           Y           Z
 ---------------------------------------------------------------------
      1          8           0        0.000000    0.000000    0.141413
      2          1           0        0.000000    0.842649   -0.565653
      3          1           0        0.000000   -0.842649   -0.565653
 ---------------------------------------------------------------------

 SCF Done:  E(RHF) =  -75.9846827937     A.U. after   10 cycles

 The electronic state is 1-A1.
 Alpha  occ. eigenvalues --  -20.58511  -1.28369  -0.62912  -0.55226  -0.49297
 Alpha virt. eigenvalues --    0.17846   0.25959   0.95989   0.96175   1.15675
 Alpha virt. eigenvalues --    1.17004   1.25565   1.40879   1.50307   1.68398
 Alpha virt. eigenvalues --    1.71140   1.86005   2.20651   2.25172   3.39579

 Mulliken charges:
               1
     1  O   -0.548075
     2  H    0.274038
     3  H    0.274038
 Sum of Mulliken charges =   0.00000

 Dipole moment (field-independent basis, Debye):
    X=              0.0000    Y=              0.0000    Z=             -2.3450  Tot=              2.3450
 Quadrupole moment (field-independent basis, Debye-Ang):
   XX=             -7.4585   YY=             -4.1090   ZZ=             -5.8935
   XY=              0.0000   XZ=              0.0000   YZ=              0.0000

 Normal termination of Gaussian 09 at Mon Sep 29 16:28:19 2014.
