 Gaussian 09, Revision D.01,
 Gaussian 09:  ES64L-G09RevD.01 24-Apr-2013

 -----------------
 #RHF 6-31G(d',p')
 -----------------

 -------------------
 H2O.r1.35theta133.0
 -------------------
 Symbolic Z-matrix:
 Charge =  0 Multiplicity = 1

                         Standard orientation:
 ---------------------------------------------------------------------
 Center     Atomic      Atomic             Coordinates (Angstroms)
 Number     Number       Type             X           Y           Z
 ---------------------------------------------------------------------
      1          8           0        0.000000    0.000000    0.107662
      2          1           0        0.000000    1.238031   -0.430649
      3          1           0        0.000000   -1.238031   -0.430649
 ---------------------------------------------------------------------

 SCF Done:  E(RHF) =  -75.8311718990     A.U. after   11 cycles

 The electronic state is 1-A1.
 Alpha  occ. eigenvalues --  -20.58964  -1.20370  -0.55667  -0.47060  -0.46097
 Alpha virt. eigenvalues --    0.07211   0.20037   0.90002   0.96018   1.14378
 Alpha virt. eigenvalues --    1.16059   1.34267   1.41422   1.47328   1.65308
 Alpha virt. eigenvalues --    1.66337   1.69386   1.96312   1.99769   3.25451

 Mulliken charges:
               1
     1  O   -0.623710
     2  H    0.311855
     3  H    0.311855
 Sum of Mulliken charges =   0.00000

 Dipole moment (field-independent basis, Debye):
    X=              0.0000    Y=              0.0000    Z=             -1.6965  Tot=              1.6965
 Quadrupole moment (field-independent basis, Debye-Ang):
   XX=             -7.9446   YY=             -1.1602   ZZ=             -7.0667
   XY=              0.0000   XZ=              0.0000   YZ=              0.0000

 Normal termination of Gaussian 09 at Mon Sep 29 16:33:45 2014.
