 Gaussian 09, Revision D.01,
 Gaussian 09:  ES64L-G09RevD.01 24-Apr-2013

 -----------------
 #RHF 6-31G(d',p')
 -----------------

 -------------------
 H2O.r1.05theta119.0
 -------------------
 Symbolic Z-matrix:
 Charge =  0 Multiplicity = 1

                         Standard orientation:
 ---------------------------------------------------------------------
 Center     Atomic      Atomic             Coordinates (Angstroms)
 Number     Number       Type             X           Y           Z
 ---------------------------------------------------------------------
      1          8           0        0.000000    0.000000    0.106583
      2          1           0        0.000000    0.904711   -0.426332
      3          1           0        0.000000   -0.904711   -0.426332
 ---------------------------------------------------------------------

 SCF Done:  E(RHF) =  -75.9967567299     A.U. after   10 cycles

 The electronic state is 1-A1.
 Alpha  occ. eigenvalues --  -20.56269  -1.28772  -0.67664  -0.52438  -0.48467
 Alpha virt. eigenvalues --    0.18676   0.28283   0.93784   1.02253   1.16222
 Alpha virt. eigenvalues --    1.17044   1.24242   1.43831   1.46653   1.75969
 Alpha virt. eigenvalues --    1.79549   1.83279   2.32906   2.34737   3.36701

 Mulliken charges:
               1
     1  O   -0.598956
     2  H    0.299478
     3  H    0.299478
 Sum of Mulliken charges =   0.00000

 Dipole moment (field-independent basis, Debye):
    X=              0.0000    Y=              0.0000    Z=             -1.9815  Tot=              1.9815
 Quadrupole moment (field-independent basis, Debye-Ang):
   XX=             -7.3572   YY=             -3.1823   ZZ=             -6.4430
   XY=              0.0000   XZ=              0.0000   YZ=              0.0000

 Normal termination of Gaussian 09 at Mon Sep 29 16:27:32 2014.
