 Gaussian 09, Revision D.01,
 Gaussian 09:  ES64L-G09RevD.01 24-Apr-2013

 -----------------
 #RHF 6-31G(d',p')
 -----------------

 -------------------
 H2O.r1.75theta159.0
 -------------------
 Symbolic Z-matrix:
 Charge =  0 Multiplicity = 1

                         Standard orientation:
 ---------------------------------------------------------------------
 Center     Atomic      Atomic             Coordinates (Angstroms)
 Number     Number       Type             X           Y           Z
 ---------------------------------------------------------------------
      1          8           0        0.000000    0.000000    0.063782
      2          1           0        0.000000    1.720696   -0.255130
      3          1           0        0.000000   -1.720696   -0.255130
 ---------------------------------------------------------------------

 SCF Done:  E(RHF) =  -75.6095227739     A.U. after   13 cycles

 The electronic state is 1-A1.
 Alpha  occ. eigenvalues --  -20.58820  -1.15282  -0.45440  -0.43303  -0.41366
 Alpha virt. eigenvalues --   -0.06760   0.11919   0.93131   0.96253   1.15564
 Alpha virt. eigenvalues --    1.17151   1.20626   1.30647   1.48299   1.48318
 Alpha virt. eigenvalues --    1.56697   1.57434   1.78827   2.12040   3.24158

 Mulliken charges:
               1
     1  O   -0.552936
     2  H    0.276468
     3  H    0.276468
 Sum of Mulliken charges =   0.00000

 Dipole moment (field-independent basis, Debye):
    X=              0.0000    Y=              0.0000    Z=             -0.7908  Tot=              0.7908
 Quadrupole moment (field-independent basis, Debye-Ang):
   XX=             -8.3891   YY=              2.5261   ZZ=             -8.0210
   XY=              0.0000   XZ=              0.0000   YZ=              0.0000

 Normal termination of Gaussian 09 at Mon Sep 29 16:42:12 2014.
