 Gaussian 09, Revision D.01,
 Gaussian 09:  ES64L-G09RevD.01 24-Apr-2013

 -----------------
 #RHF 6-31G(d',p')
 -----------------

 ------------------
 H2O.r0.80theta91.0
 ------------------
 Symbolic Z-matrix:
 Charge =  0 Multiplicity = 1

                         Standard orientation:
 ---------------------------------------------------------------------
 Center     Atomic      Atomic             Coordinates (Angstroms)
 Number     Number       Type             X           Y           Z
 ---------------------------------------------------------------------
      1          8           0        0.000000    0.000000    0.112145
      2          1           0        0.000000    0.570600   -0.448582
      3          1           0        0.000000   -0.570600   -0.448582
 ---------------------------------------------------------------------

 SCF Done:  E(RHF) =  -75.9494176797     A.U. after    9 cycles

 The electronic state is 1-A1.
 Alpha  occ. eigenvalues --  -20.52943  -1.45582  -0.75967  -0.62694  -0.51510
 Alpha virt. eigenvalues --    0.23485   0.34187   1.01368   1.10178   1.14391
 Alpha virt. eigenvalues --    1.30906   1.31234   1.37765   1.63061   1.68191
 Alpha virt. eigenvalues --    1.68557   2.27994   2.85837   3.03750   3.67157

 Mulliken charges:
               1
     1  O   -0.427997
     2  H    0.213998
     3  H    0.213998
 Sum of Mulliken charges =   0.00000

 Dipole moment (field-independent basis, Debye):
    X=              0.0000    Y=              0.0000    Z=             -2.1819  Tot=              2.1819
 Quadrupole moment (field-independent basis, Debye-Ang):
   XX=             -6.7234   YY=             -4.8649   ZZ=             -5.5738
   XY=              0.0000   XZ=              0.0000   YZ=              0.0000

 Normal termination of Gaussian 09 at Mon Sep 29 16:22:01 2014.
