 Gaussian 09, Revision D.01,
 Gaussian 09:  ES64L-G09RevD.01 24-Apr-2013

 -----------------
 #RHF 6-31G(d',p')
 -----------------

 -------------------
 H2O.r1.90theta127.0
 -------------------
 Symbolic Z-matrix:
 Charge =  0 Multiplicity = 1

                         Standard orientation:
 ---------------------------------------------------------------------
 Center     Atomic      Atomic             Coordinates (Angstroms)
 Number     Number       Type             X           Y           Z
 ---------------------------------------------------------------------
      1          8           0        0.000000    0.000000    0.169555
      2          1           0        0.000000    1.700375   -0.678221
      3          1           0        0.000000   -1.700375   -0.678221
 ---------------------------------------------------------------------

 SCF Done:  E(RHF) =  -75.5874061509     A.U. after   13 cycles

 The electronic state is 1-A1.
 Alpha  occ. eigenvalues --  -20.64981  -1.18473  -0.49495  -0.42387  -0.42183
 Alpha virt. eigenvalues --   -0.04992   0.04669   0.96283   0.97803   1.14103
 Alpha virt. eigenvalues --    1.14986   1.18478   1.20229   1.49504   1.49560
 Alpha virt. eigenvalues --    1.52788   1.54814   1.86463   1.89556   3.20412

 Mulliken charges:
               1
     1  O   -0.393487
     2  H    0.196743
     3  H    0.196743
 Sum of Mulliken charges =   0.00000

 Dipole moment (field-independent basis, Debye):
    X=              0.0000    Y=              0.0000    Z=             -1.7239  Tot=              1.7239
 Quadrupole moment (field-independent basis, Debye-Ang):
   XX=             -8.4789   YY=              0.1041   ZZ=             -6.8648
   XY=              0.0000   XZ=              0.0000   YZ=              0.0000

 Normal termination of Gaussian 09 at Mon Sep 29 16:44:52 2014.
