 Gaussian 09, Revision D.01,
 Gaussian 09:  ES64L-G09RevD.01 24-Apr-2013

 -----------------
 #RHF 6-31G(d',p')
 -----------------

 -------------------
 H2O.r1.10theta108.0
 -------------------
 Symbolic Z-matrix:
 Charge =  0 Multiplicity = 1

                         Standard orientation:
 ---------------------------------------------------------------------
 Center     Atomic      Atomic             Coordinates (Angstroms)
 Number     Number       Type             X           Y           Z
 ---------------------------------------------------------------------
      1          8           0        0.000000    0.000000    0.129313
      2          1           0        0.000000    0.889919   -0.517251
      3          1           0        0.000000   -0.889919   -0.517251
 ---------------------------------------------------------------------

 SCF Done:  E(RHF) =  -75.9833432070     A.U. after   10 cycles

 The electronic state is 1-A1.
 Alpha  occ. eigenvalues --  -20.57959  -1.27807  -0.63989  -0.53716  -0.48900
 Alpha virt. eigenvalues --    0.17660   0.26350   0.94611   0.98020   1.16032
 Alpha virt. eigenvalues --    1.16397   1.24924   1.42650   1.48387   1.71470
 Alpha virt. eigenvalues --    1.75090   1.83026   2.21254   2.25458   3.37292

 Mulliken charges:
               1
     1  O   -0.571291
     2  H    0.285646
     3  H    0.285646
 Sum of Mulliken charges =   0.00000

 Dipole moment (field-independent basis, Debye):
    X=              0.0000    Y=              0.0000    Z=             -2.2132  Tot=              2.2132
 Quadrupole moment (field-independent basis, Debye-Ang):
   XX=             -7.4621   YY=             -3.6489   ZZ=             -6.1472
   XY=              0.0000   XZ=              0.0000   YZ=              0.0000

 Normal termination of Gaussian 09 at Mon Sep 29 16:28:24 2014.
