 Gaussian 09, Revision D.01,
 Gaussian 09:  ES64L-G09RevD.01 24-Apr-2013

 -----------------
 #RHF 6-31G(d',p')
 -----------------

 -------------------
 H2O.r1.70theta158.0
 -------------------
 Symbolic Z-matrix:
 Charge =  0 Multiplicity = 1

                         Standard orientation:
 ---------------------------------------------------------------------
 Center     Atomic      Atomic             Coordinates (Angstroms)
 Number     Number       Type             X           Y           Z
 ---------------------------------------------------------------------
      1          8           0        0.000000    0.000000    0.064875
      2          1           0        0.000000    1.668766   -0.259500
      3          1           0        0.000000   -1.668766   -0.259500
 ---------------------------------------------------------------------

 SCF Done:  E(RHF) =  -75.6299226544     A.U. after   12 cycles

 The electronic state is 1-A1.
 Alpha  occ. eigenvalues --  -20.58670  -1.15498  -0.45397  -0.44619  -0.41366
 Alpha virt. eigenvalues --   -0.05584   0.12838   0.92774   0.95607   1.15255
 Alpha virt. eigenvalues --    1.16940   1.22796   1.33988   1.48371   1.48392
 Alpha virt. eigenvalues --    1.57857   1.58827   1.79231   2.13703   3.24498

 Mulliken charges:
               1
     1  O   -0.572804
     2  H    0.286402
     3  H    0.286402
 Sum of Mulliken charges =   0.00000

 Dipole moment (field-independent basis, Debye):
    X=              0.0000    Y=              0.0000    Z=             -0.8336  Tot=              0.8336
 Quadrupole moment (field-independent basis, Debye-Ang):
   XX=             -8.3525   YY=              2.2379   ZZ=             -7.9676
   XY=              0.0000   XZ=              0.0000   YZ=              0.0000

 Normal termination of Gaussian 09 at Mon Sep 29 16:41:11 2014.
