 Gaussian 09, Revision D.01,
 Gaussian 09:  ES64L-G09RevD.01 24-Apr-2013

 -----------------
 #RHF 6-31G(d',p')
 -----------------

 ------------------
 H2O.r1.10theta74.0
 ------------------
 Symbolic Z-matrix:
 Charge =  0 Multiplicity = 1

                         Standard orientation:
 ---------------------------------------------------------------------
 Center     Atomic      Atomic             Coordinates (Angstroms)
 Number     Number       Type             X           Y           Z
 ---------------------------------------------------------------------
      1          8           0        0.000000    0.000000    0.175700
      2          1           0        0.000000    0.661997   -0.702799
      3          1           0        0.000000   -0.661997   -0.702799
 ---------------------------------------------------------------------

 SCF Done:  E(RHF) =  -75.9656299832     A.U. after   10 cycles

 The electronic state is 1-A1.
 Alpha  occ. eigenvalues --  -20.59648  -1.30209  -0.60267  -0.58512  -0.50230
 Alpha virt. eigenvalues --    0.17207   0.25025   0.93220   0.97574   1.14494
 Alpha virt. eigenvalues --    1.20948   1.25111   1.26889   1.52926   1.61508
 Alpha virt. eigenvalues --    1.65034   1.94488   2.27120   2.37791   3.34800

 Mulliken charges:
               1
     1  O   -0.491470
     2  H    0.245735
     3  H    0.245735
 Sum of Mulliken charges =   0.00000

 Dipole moment (field-independent basis, Debye):
    X=              0.0000    Y=              0.0000    Z=             -2.6856  Tot=              2.6856
 Quadrupole moment (field-independent basis, Debye-Ang):
   XX=             -7.4434   YY=             -5.5152   ZZ=             -5.0601
   XY=              0.0000   XZ=              0.0000   YZ=              0.0000

 Normal termination of Gaussian 09 at Mon Sep 29 16:28:02 2014.
