 Gaussian 09, Revision D.01,
 Gaussian 09:  ES64L-G09RevD.01 24-Apr-2013

 -----------------
 #RHF 6-31G(d',p')
 -----------------

 ------------------
 H2O.r1.45theta74.0
 ------------------
 Symbolic Z-matrix:
 Charge =  0 Multiplicity = 1

                         Standard orientation:
 ---------------------------------------------------------------------
 Center     Atomic      Atomic             Coordinates (Angstroms)
 Number     Number       Type             X           Y           Z
 ---------------------------------------------------------------------
      1          8           0        0.000000    0.000000    0.231604
      2          1           0        0.000000    0.872632   -0.926417
      3          1           0        0.000000   -0.872632   -0.926417
 ---------------------------------------------------------------------

 SCF Done:  E(RHF) =  -75.8006786196     A.U. after   11 cycles

 The electronic state is 1-A1.
 Alpha  occ. eigenvalues --  -20.64372  -1.22649  -0.51910  -0.50525  -0.50422
 Alpha virt. eigenvalues --    0.09084   0.11004   0.92187   0.94471   1.10669
 Alpha virt. eigenvalues --    1.17891   1.26646   1.31866   1.54007   1.54657
 Alpha virt. eigenvalues --    1.59297   1.68389   1.92423   2.03898   3.22193

 Mulliken charges:
               1
     1  O   -0.453644
     2  H    0.226822
     3  H    0.226822
 Sum of Mulliken charges =   0.00000

 Dipole moment (field-independent basis, Debye):
    X=              0.0000    Y=              0.0000    Z=             -2.7263  Tot=              2.7263
 Quadrupole moment (field-independent basis, Debye-Ang):
   XX=             -8.0994   YY=             -5.3575   ZZ=             -4.6474
   XY=              0.0000   XZ=              0.0000   YZ=              0.0000

 Normal termination of Gaussian 09 at Mon Sep 29 16:35:10 2014.
