 Gaussian 09, Revision D.01,
 Gaussian 09:  ES64L-G09RevD.01 24-Apr-2013

 -----------------
 #RHF 6-31G(d',p')
 -----------------

 -------------------
 H2O.r0.85theta153.0
 -------------------
 Symbolic Z-matrix:
 Charge =  0 Multiplicity = 1

                         Standard orientation:
 ---------------------------------------------------------------------
 Center     Atomic      Atomic             Coordinates (Angstroms)
 Number     Number       Type             X           Y           Z
 ---------------------------------------------------------------------
      1          8           0        0.000000    0.000000    0.039686
      2          1           0        0.000000    0.826514   -0.158743
      3          1           0        0.000000   -0.826514   -0.158743
 ---------------------------------------------------------------------

 SCF Done:  E(RHF) =  -75.9684686534     A.U. after   10 cycles

 The electronic state is 1-A1.
 Alpha  occ. eigenvalues --  -20.51083  -1.36294  -0.83883  -0.50162  -0.48964
 Alpha virt. eigenvalues --    0.23833   0.31693   0.90748   1.16494   1.17018
 Alpha virt. eigenvalues --    1.23306   1.33727   1.44373   1.48882   1.90108
 Alpha virt. eigenvalues --    1.98523   1.98759   2.68247   3.12360   3.27930

 Mulliken charges:
               1
     1  O   -0.598732
     2  H    0.299366
     3  H    0.299366
 Sum of Mulliken charges =   0.00000

 Dipole moment (field-independent basis, Debye):
    X=              0.0000    Y=              0.0000    Z=             -0.9653  Tot=              0.9653
 Quadrupole moment (field-independent basis, Debye-Ang):
   XX=             -6.8992   YY=             -2.8645   ZZ=             -6.7612
   XY=              0.0000   XZ=              0.0000   YZ=              0.0000

 Normal termination of Gaussian 09 at Mon Sep 29 16:23:53 2014.
