 Gaussian 09, Revision D.01,
 Gaussian 09:  ES64L-G09RevD.01 24-Apr-2013

 -----------------
 #RHF 6-31G(d',p')
 -----------------

 ------------------
 H2O.r1.90theta98.0
 ------------------
 Symbolic Z-matrix:
 Charge =  0 Multiplicity = 1

                         Standard orientation:
 ---------------------------------------------------------------------
 Center     Atomic      Atomic             Coordinates (Angstroms)
 Number     Number       Type             X           Y           Z
 ---------------------------------------------------------------------
      1          8           0        0.000000    0.000000    0.249302
      2          1           0        0.000000    1.433948   -0.997210
      3          1           0        0.000000   -1.433948   -0.997210
 ---------------------------------------------------------------------

 SCF Done:  E(RHF) =  -75.6003265728     A.U. after   13 cycles

 The electronic state is 1-A1.
 Alpha  occ. eigenvalues --  -20.67160  -1.19949  -0.51019  -0.43938  -0.42067
 Alpha virt. eigenvalues --   -0.00831   0.00279   0.93956   1.01111   1.13046
 Alpha virt. eigenvalues --    1.14641   1.18311   1.19270   1.50024   1.50635
 Alpha virt. eigenvalues --    1.51953   1.55005   1.77006   1.98388   3.18205

 Mulliken charges:
               1
     1  O   -0.350243
     2  H    0.175121
     3  H    0.175121
 Sum of Mulliken charges =   0.00000

 Dipole moment (field-independent basis, Debye):
    X=              0.0000    Y=              0.0000    Z=             -2.3485  Tot=              2.3485
 Quadrupole moment (field-independent basis, Debye-Ang):
   XX=             -8.4933   YY=             -2.7442   ZZ=             -5.2185
   XY=              0.0000   XZ=              0.0000   YZ=              0.0000

 Normal termination of Gaussian 09 at Mon Sep 29 16:44:33 2014.
