 Gaussian 09, Revision D.01,
 Gaussian 09:  ES64L-G09RevD.01 24-Apr-2013

 -----------------
 #RHF 6-31G(d',p')
 -----------------

 -------------------
 H2O.r1.10theta150.0
 -------------------
 Symbolic Z-matrix:
 Charge =  0 Multiplicity = 1

                         Standard orientation:
 ---------------------------------------------------------------------
 Center     Atomic      Atomic             Coordinates (Angstroms)
 Number     Number       Type             X           Y           Z
 ---------------------------------------------------------------------
      1          8           0        0.000000    0.000000    0.056940
      2          1           0        0.000000    1.062518   -0.227761
      3          1           0        0.000000   -1.062518   -0.227761
 ---------------------------------------------------------------------

 SCF Done:  E(RHF) =  -75.9387751044     A.U. after   10 cycles

 The electronic state is 1-A1.
 Alpha  occ. eigenvalues --  -20.53490  -1.24282  -0.66686  -0.46412  -0.45822
 Alpha virt. eigenvalues --    0.14297   0.28064   0.86741   1.03514   1.18166
 Alpha virt. eigenvalues --    1.18491   1.33258   1.43766   1.45947   1.76905
 Alpha virt. eigenvalues --    1.79210   1.80169   2.15155   2.43364   3.27685

 Mulliken charges:
               1
     1  O   -0.740177
     2  H    0.370088
     3  H    0.370088
 Sum of Mulliken charges =   0.00000

 Dipole moment (field-independent basis, Debye):
    X=              0.0000    Y=              0.0000    Z=             -1.2057  Tot=              1.2057
 Quadrupole moment (field-independent basis, Debye-Ang):
   XX=             -7.4939   YY=             -1.2883   ZZ=             -7.2264
   XY=              0.0000   XZ=              0.0000   YZ=              0.0000

 Normal termination of Gaussian 09 at Mon Sep 29 16:28:52 2014.
