 Gaussian 09, Revision D.01,
 Gaussian 09:  ES64L-G09RevD.01 24-Apr-2013

 -----------------
 #RHF 6-31G(d',p')
 -----------------

 -------------------
 H2O.r1.80theta130.0
 -------------------
 Symbolic Z-matrix:
 Charge =  0 Multiplicity = 1

                         Standard orientation:
 ---------------------------------------------------------------------
 Center     Atomic      Atomic             Coordinates (Angstroms)
 Number     Number       Type             X           Y           Z
 ---------------------------------------------------------------------
      1          8           0        0.000000    0.000000    0.152143
      2          1           0        0.000000    1.631354   -0.608570
      3          1           0        0.000000   -1.631354   -0.608570
 ---------------------------------------------------------------------

 SCF Done:  E(RHF) =  -75.6232271796     A.U. after   13 cycles

 The electronic state is 1-A1.
 Alpha  occ. eigenvalues --  -20.64217  -1.18437  -0.49057  -0.44191  -0.42616
 Alpha virt. eigenvalues --   -0.03390   0.06848   0.95722   0.96518   1.13608
 Alpha virt. eigenvalues --    1.17905   1.17971   1.25079   1.49658   1.49698
 Alpha virt. eigenvalues --    1.54462   1.56981   1.89120   1.93820   3.20984

 Mulliken charges:
               1
     1  O   -0.429915
     2  H    0.214957
     3  H    0.214957
 Sum of Mulliken charges =   0.00000

 Dipole moment (field-independent basis, Debye):
    X=              0.0000    Y=              0.0000    Z=             -1.6483  Tot=              1.6483
 Quadrupole moment (field-independent basis, Debye-Ang):
   XX=             -8.4212   YY=              0.0242   ZZ=             -7.0111
   XY=              0.0000   XZ=              0.0000   YZ=              0.0000

 Normal termination of Gaussian 09 at Mon Sep 29 16:42:51 2014.
