 Gaussian 09, Revision D.01,
 Gaussian 09:  ES64L-G09RevD.01 24-Apr-2013

 -----------------
 #RHF 6-31G(d',p')
 -----------------

 -------------------
 H2O.r1.85theta155.0
 -------------------
 Symbolic Z-matrix:
 Charge =  0 Multiplicity = 1

                         Standard orientation:
 ---------------------------------------------------------------------
 Center     Atomic      Atomic             Coordinates (Angstroms)
 Number     Number       Type             X           Y           Z
 ---------------------------------------------------------------------
      1          8           0        0.000000    0.000000    0.080083
      2          1           0        0.000000    1.806148   -0.320331
      3          1           0        0.000000   -1.806148   -0.320331
 ---------------------------------------------------------------------

 SCF Done:  E(RHF) =  -75.5787801970     A.U. after   14 cycles

 The electronic state is 1-A1.
 Alpha  occ. eigenvalues --  -20.60319  -1.15770  -0.46414  -0.41765  -0.41360
 Alpha virt. eigenvalues --   -0.08080   0.09490   0.94584   0.97038   1.15732
 Alpha virt. eigenvalues --    1.16700   1.18174   1.24328   1.48417   1.48451
 Alpha virt. eigenvalues --    1.54372   1.55100   1.78368   2.04796   3.22980

 Mulliken charges:
               1
     1  O   -0.490407
     2  H    0.245203
     3  H    0.245203
 Sum of Mulliken charges =   0.00000

 Dipole moment (field-independent basis, Debye):
    X=              0.0000    Y=              0.0000    Z=             -0.9153  Tot=              0.9153
 Quadrupole moment (field-independent basis, Debye-Ang):
   XX=             -8.4507   YY=              2.5262   ZZ=             -7.9701
   XY=              0.0000   XZ=              0.0000   YZ=              0.0000

 Normal termination of Gaussian 09 at Mon Sep 29 16:44:09 2014.
