 Gaussian 09, Revision D.01,
 Gaussian 09:  ES64L-G09RevD.01 24-Apr-2013

 -----------------
 #RHF 6-31G(d',p')
 -----------------

 ------------------
 H2O.r0.80theta96.0
 ------------------
 Symbolic Z-matrix:
 Charge =  0 Multiplicity = 1

                         Standard orientation:
 ---------------------------------------------------------------------
 Center     Atomic      Atomic             Coordinates (Angstroms)
 Number     Number       Type             X           Y           Z
 ---------------------------------------------------------------------
      1          8           0        0.000000    0.000000    0.107061
      2          1           0        0.000000    0.594516   -0.428244
      3          1           0        0.000000   -0.594516   -0.428244
 ---------------------------------------------------------------------

 SCF Done:  E(RHF) =  -75.9550323754     A.U. after    9 cycles

 The electronic state is 1-A1.
 Alpha  occ. eigenvalues --  -20.52767  -1.44854  -0.77462  -0.61580  -0.51363
 Alpha virt. eigenvalues --    0.23751   0.34011   1.03025   1.10114   1.14491
 Alpha virt. eigenvalues --    1.28049   1.30654   1.40108   1.60633   1.69869
 Alpha virt. eigenvalues --    1.72296   2.24449   2.87403   3.01465   3.69314

 Mulliken charges:
               1
     1  O   -0.432572
     2  H    0.216286
     3  H    0.216286
 Sum of Mulliken charges =   0.00000

 Dipole moment (field-independent basis, Debye):
    X=              0.0000    Y=              0.0000    Z=             -2.1161  Tot=              2.1161
 Quadrupole moment (field-independent basis, Debye-Ang):
   XX=             -6.7242   YY=             -4.7004   ZZ=             -5.6787
   XY=              0.0000   XZ=              0.0000   YZ=              0.0000

 Normal termination of Gaussian 09 at Mon Sep 29 16:22:05 2014.
