 Gaussian 09, Revision D.01,
 Gaussian 09:  ES64L-G09RevD.01 24-Apr-2013

 -----------------
 #RHF 6-31G(d',p')
 -----------------

 -------------------
 H2O.r1.90theta134.0
 -------------------
 Symbolic Z-matrix:
 Charge =  0 Multiplicity = 1

                         Standard orientation:
 ---------------------------------------------------------------------
 Center     Atomic      Atomic             Coordinates (Angstroms)
 Number     Number       Type             X           Y           Z
 ---------------------------------------------------------------------
      1          8           0        0.000000    0.000000    0.148478
      2          1           0        0.000000    1.748959   -0.593911
      3          1           0        0.000000   -1.748959   -0.593911
 ---------------------------------------------------------------------

 SCF Done:  E(RHF) =  -75.5820462977     A.U. after   13 cycles

 The electronic state is 1-A1.
 Alpha  occ. eigenvalues --  -20.64145  -1.17956  -0.48944  -0.42259  -0.41828
 Alpha virt. eigenvalues --   -0.05951   0.05615   0.96678   0.97070   1.14471
 Alpha virt. eigenvalues --    1.15117   1.18374   1.20609   1.49278   1.49334
 Alpha virt. eigenvalues --    1.52978   1.54663   1.83639   1.92838   3.20836

 Mulliken charges:
               1
     1  O   -0.407992
     2  H    0.203996
     3  H    0.203996
 Sum of Mulliken charges =   0.00000

 Dipole moment (field-independent basis, Debye):
    X=              0.0000    Y=              0.0000    Z=             -1.5373  Tot=              1.5373
 Quadrupole moment (field-independent basis, Debye-Ang):
   XX=             -8.4782   YY=              0.7603   ZZ=             -7.2001
   XY=              0.0000   XZ=              0.0000   YZ=              0.0000

 Normal termination of Gaussian 09 at Mon Sep 29 16:44:56 2014.
