 Gaussian 09, Revision D.01,
 Gaussian 09:  ES64L-G09RevD.01 24-Apr-2013

 -----------------
 #RHF 6-31G(d',p')
 -----------------

 ------------------
 H2O.r0.70theta88.0
 ------------------
 Symbolic Z-matrix:
 Charge =  0 Multiplicity = 1

                         Standard orientation:
 ---------------------------------------------------------------------
 Center     Atomic      Atomic             Coordinates (Angstroms)
 Number     Number       Type             X           Y           Z
 ---------------------------------------------------------------------
      1          8           0        0.000000    0.000000    0.100708
      2          1           0        0.000000    0.486261   -0.402830
      3          1           0        0.000000   -0.486261   -0.402830
 ---------------------------------------------------------------------

 SCF Done:  E(RHF) =  -75.7590821980     A.U. after    9 cycles

 The electronic state is 1-A1.
 Alpha  occ. eigenvalues --  -20.50975  -1.54999  -0.81111  -0.65245  -0.52860
 Alpha virt. eigenvalues --    0.24425   0.35710   1.02897   1.08636   1.10491
 Alpha virt. eigenvalues --    1.37853   1.39515   1.46558   1.69395   1.73424
 Alpha virt. eigenvalues --    1.74956   2.45000   3.13160   3.41648   3.78532

 Mulliken charges:
               1
     1  O   -0.370392
     2  H    0.185196
     3  H    0.185196
 Sum of Mulliken charges =   0.00000

 Dipole moment (field-independent basis, Debye):
    X=              0.0000    Y=              0.0000    Z=             -2.0770  Tot=              2.0770
 Quadrupole moment (field-independent basis, Debye-Ang):
   XX=             -6.4704   YY=             -4.9639   ZZ=             -5.4316
   XY=              0.0000   XZ=              0.0000   YZ=              0.0000

 Normal termination of Gaussian 09 at Mon Sep 29 16:19:46 2014.
