 Gaussian 09, Revision D.01,
 Gaussian 09:  ES64L-G09RevD.01 24-Apr-2013

 -----------------
 #RHF 6-31G(d',p')
 -----------------

 -------------------
 H2O.r1.00theta108.0
 -------------------
 Symbolic Z-matrix:
 Charge =  0 Multiplicity = 1

                         Standard orientation:
 ---------------------------------------------------------------------
 Center     Atomic      Atomic             Coordinates (Angstroms)
 Number     Number       Type             X           Y           Z
 ---------------------------------------------------------------------
      1          8           0        0.000000    0.000000    0.117557
      2          1           0        0.000000    0.809017   -0.470228
      3          1           0        0.000000   -0.809017   -0.470228
 ---------------------------------------------------------------------

 SCF Done:  E(RHF) =  -76.0171803532     A.U. after   10 cycles

 The electronic state is 1-A1.
 Alpha  occ. eigenvalues --  -20.56251  -1.31697  -0.68766  -0.55415  -0.49295
 Alpha virt. eigenvalues --    0.20345   0.29383   0.98559   1.00293   1.16657
 Alpha virt. eigenvalues --    1.16910   1.25054   1.42626   1.49606   1.72991
 Alpha virt. eigenvalues --    1.74442   1.91658   2.41596   2.42452   3.44550

 Mulliken charges:
               1
     1  O   -0.549289
     2  H    0.274644
     3  H    0.274644
 Sum of Mulliken charges =   0.00000

 Dipole moment (field-independent basis, Debye):
    X=              0.0000    Y=              0.0000    Z=             -2.1512  Tot=              2.1512
 Quadrupole moment (field-independent basis, Debye-Ang):
   XX=             -7.2329   YY=             -3.8898   ZZ=             -6.1061
   XY=              0.0000   XZ=              0.0000   YZ=              0.0000

 Normal termination of Gaussian 09 at Mon Sep 29 16:26:25 2014.
