 Gaussian 09, Revision D.01,
 Gaussian 09:  ES64L-G09RevD.01 24-Apr-2013

 -----------------
 #RHF 6-31G(d',p')
 -----------------

 ------------------
 H2O.r1.50theta74.0
 ------------------
 Symbolic Z-matrix:
 Charge =  0 Multiplicity = 1

                         Standard orientation:
 ---------------------------------------------------------------------
 Center     Atomic      Atomic             Coordinates (Angstroms)
 Number     Number       Type             X           Y           Z
 ---------------------------------------------------------------------
      1          8           0        0.000000    0.000000    0.239591
      2          1           0        0.000000    0.902723   -0.958363
      3          1           0        0.000000   -0.902723   -0.958363
 ---------------------------------------------------------------------

 SCF Done:  E(RHF) =  -75.7764971422     A.U. after   11 cycles

 The electronic state is 1-A1.
 Alpha  occ. eigenvalues --  -20.64844  -1.22180  -0.50713  -0.50636  -0.49684
 Alpha virt. eigenvalues --    0.08066   0.09205   0.92148   0.95007   1.10606
 Alpha virt. eigenvalues --    1.17868   1.25839   1.32280   1.51483   1.53339
 Alpha virt. eigenvalues --    1.59263   1.67484   1.87230   2.06103   3.21469

 Mulliken charges:
               1
     1  O   -0.438976
     2  H    0.219488
     3  H    0.219488
 Sum of Mulliken charges =   0.00000

 Dipole moment (field-independent basis, Debye):
    X=              0.0000    Y=              0.0000    Z=             -2.7120  Tot=              2.7120
 Quadrupole moment (field-independent basis, Debye-Ang):
   XX=             -8.1690   YY=             -5.3146   ZZ=             -4.5830
   XY=              0.0000   XZ=              0.0000   YZ=              0.0000

 Normal termination of Gaussian 09 at Mon Sep 29 16:36:11 2014.
