 Gaussian 09, Revision D.01,
 Gaussian 09:  ES64L-G09RevD.01 24-Apr-2013

 -----------------
 #RHF 6-31G(d',p')
 -----------------

 -------------------
 H2O.r1.35theta117.0
 -------------------
 Symbolic Z-matrix:
 Charge =  0 Multiplicity = 1

                         Standard orientation:
 ---------------------------------------------------------------------
 Center     Atomic      Atomic             Coordinates (Angstroms)
 Number     Number       Type             X           Y           Z
 ---------------------------------------------------------------------
      1          8           0        0.000000    0.000000    0.141075
      2          1           0        0.000000    1.151064   -0.564298
      3          1           0        0.000000   -1.151064   -0.564298
 ---------------------------------------------------------------------

 SCF Done:  E(RHF) =  -75.8490449480     A.U. after   11 cycles

 The electronic state is 1-A1.
 Alpha  occ. eigenvalues --  -20.60850  -1.21673  -0.55276  -0.48413  -0.48387
 Alpha virt. eigenvalues --    0.09290   0.18447   0.90336   0.96596   1.13425
 Alpha virt. eigenvalues --    1.16177   1.29585   1.41592   1.48229   1.66277
 Alpha virt. eigenvalues --    1.67012   1.68663   1.90108   2.04782   3.25512

 Mulliken charges:
               1
     1  O   -0.567441
     2  H    0.283720
     3  H    0.283720
 Sum of Mulliken charges =   0.00000

 Dipole moment (field-independent basis, Debye):
    X=              0.0000    Y=              0.0000    Z=             -2.0698  Tot=              2.0698
 Quadrupole moment (field-independent basis, Debye-Ang):
   XX=             -7.9394   YY=             -2.3724   ZZ=             -6.4987
   XY=              0.0000   XZ=              0.0000   YZ=              0.0000

 Normal termination of Gaussian 09 at Mon Sep 29 16:33:30 2014.
