 Gaussian 09, Revision D.01,
 Gaussian 09:  ES64L-G09RevD.01 24-Apr-2013

 -----------------
 #RHF 6-31G(d',p')
 -----------------

 -------------------
 H2O.r1.90theta135.0
 -------------------
 Symbolic Z-matrix:
 Charge =  0 Multiplicity = 1

                         Standard orientation:
 ---------------------------------------------------------------------
 Center     Atomic      Atomic             Coordinates (Angstroms)
 Number     Number       Type             X           Y           Z
 ---------------------------------------------------------------------
      1          8           0        0.000000    0.000000    0.145420
      2          1           0        0.000000    1.755371   -0.581679
      3          1           0        0.000000   -1.755371   -0.581679
 ---------------------------------------------------------------------

 SCF Done:  E(RHF) =  -75.5812153648     A.U. after   13 cycles

 The electronic state is 1-A1.
 Alpha  occ. eigenvalues --  -20.64013  -1.17875  -0.48857  -0.42241  -0.41771
 Alpha virt. eigenvalues --   -0.06090   0.05753   0.96725   0.96970   1.14530
 Alpha virt. eigenvalues --    1.15140   1.18361   1.20664   1.49242   1.49297
 Alpha virt. eigenvalues --    1.53004   1.54638   1.83255   1.93303   3.20904

 Mulliken charges:
               1
     1  O   -0.410290
     2  H    0.205145
     3  H    0.205145
 Sum of Mulliken charges =   0.00000

 Dipole moment (field-independent basis, Debye):
    X=              0.0000    Y=              0.0000    Z=             -1.5099  Tot=              1.5099
 Quadrupole moment (field-independent basis, Debye-Ang):
   XX=             -8.4781   YY=              0.8535   ZZ=             -7.2453
   XY=              0.0000   XZ=              0.0000   YZ=              0.0000

 Normal termination of Gaussian 09 at Mon Sep 29 16:44:57 2014.
