 Gaussian 09, Revision D.01,
 Gaussian 09:  ES64L-G09RevD.01 24-Apr-2013

 -----------------
 #RHF 6-31G(d',p')
 -----------------

 ------------------
 H2O.r1.30theta97.0
 ------------------
 Symbolic Z-matrix:
 Charge =  0 Multiplicity = 1

                         Standard orientation:
 ---------------------------------------------------------------------
 Center     Atomic      Atomic             Coordinates (Angstroms)
 Number     Number       Type             X           Y           Z
 ---------------------------------------------------------------------
      1          8           0        0.000000    0.000000    0.172281
      2          1           0        0.000000    0.973642   -0.689125
      3          1           0        0.000000   -0.973642   -0.689125
 ---------------------------------------------------------------------

 SCF Done:  E(RHF) =  -75.8851174658     A.U. after   11 cycles

 The electronic state is 1-A1.
 Alpha  occ. eigenvalues --  -20.61761  -1.23643  -0.55490  -0.52108  -0.49441
 Alpha virt. eigenvalues --    0.12371   0.18333   0.91503   0.95043   1.12943
 Alpha virt. eigenvalues --    1.16936   1.27256   1.41766   1.49920   1.66819
 Alpha virt. eigenvalues --    1.68042   1.74141   1.89549   2.07816   3.28235

 Mulliken charges:
               1
     1  O   -0.531808
     2  H    0.265904
     3  H    0.265904
 Sum of Mulliken charges =   0.00000

 Dipole moment (field-independent basis, Debye):
    X=              0.0000    Y=              0.0000    Z=             -2.4498  Tot=              2.4498
 Quadrupole moment (field-independent basis, Debye-Ang):
   XX=             -7.8564   YY=             -3.9518   ZZ=             -5.7206
   XY=              0.0000   XZ=              0.0000   YZ=              0.0000

 Normal termination of Gaussian 09 at Mon Sep 29 16:32:15 2014.
