 Gaussian 09, Revision D.01,
 Gaussian 09:  ES64L-G09RevD.01 24-Apr-2013

 -----------------
 #RHF 6-31G(d',p')
 -----------------

 -------------------
 H2O.r1.30theta132.0
 -------------------
 Symbolic Z-matrix:
 Charge =  0 Multiplicity = 1

                         Standard orientation:
 ---------------------------------------------------------------------
 Center     Atomic      Atomic             Coordinates (Angstroms)
 Number     Number       Type             X           Y           Z
 ---------------------------------------------------------------------
      1          8           0        0.000000    0.000000    0.105752
      2          1           0        0.000000    1.187609   -0.423006
      3          1           0        0.000000   -1.187609   -0.423006
 ---------------------------------------------------------------------

 SCF Done:  E(RHF) =  -75.8595092360     A.U. after   11 cycles

 The electronic state is 1-A1.
 Alpha  occ. eigenvalues --  -20.58409  -1.21164  -0.57429  -0.47053  -0.46793
 Alpha virt. eigenvalues --    0.08971   0.21561   0.89648   0.96913   1.14864
 Alpha virt. eigenvalues --    1.16090   1.32056   1.42577   1.46794   1.68463
 Alpha virt. eigenvalues --    1.69206   1.70798   1.99974   2.02753   3.26244

 Mulliken charges:
               1
     1  O   -0.635461
     2  H    0.317730
     3  H    0.317730
 Sum of Mulliken charges =   0.00000

 Dipole moment (field-independent basis, Debye):
    X=              0.0000    Y=              0.0000    Z=             -1.7312  Tot=              1.7312
 Quadrupole moment (field-independent basis, Debye-Ang):
   XX=             -7.8628   YY=             -1.4201   ZZ=             -7.0071
   XY=              0.0000   XZ=              0.0000   YZ=              0.0000

 Normal termination of Gaussian 09 at Mon Sep 29 16:32:40 2014.
