 Gaussian 09, Revision D.01,
 Gaussian 09:  ES64L-G09RevD.01 24-Apr-2013

 -----------------
 #RHF 6-31G(d',p')
 -----------------

 -------------------
 H2O.r1.55theta157.0
 -------------------
 Symbolic Z-matrix:
 Charge =  0 Multiplicity = 1

                         Standard orientation:
 ---------------------------------------------------------------------
 Center     Atomic      Atomic             Coordinates (Angstroms)
 Number     Number       Type             X           Y           Z
 ---------------------------------------------------------------------
      1          8           0        0.000000    0.000000    0.061804
      2          1           0        0.000000    1.518883   -0.247216
      3          1           0        0.000000   -1.518883   -0.247216
 ---------------------------------------------------------------------

 SCF Done:  E(RHF) =  -75.6949158414     A.U. after   12 cycles

 The electronic state is 1-A1.
 Alpha  occ. eigenvalues --  -20.57195  -1.15913  -0.48525  -0.44743  -0.41726
 Alpha virt. eigenvalues --   -0.02111   0.16615   0.92237   0.92988   1.15120
 Alpha virt. eigenvalues --    1.16569   1.31532   1.43574   1.47908   1.50040
 Alpha virt. eigenvalues --    1.61384   1.63243   1.79019   2.16550   3.26027

 Mulliken charges:
               1
     1  O   -0.652628
     2  H    0.326314
     3  H    0.326314
 Sum of Mulliken charges =   0.00000

 Dipole moment (field-independent basis, Debye):
    X=              0.0000    Y=              0.0000    Z=             -0.9167  Tot=              0.9167
 Quadrupole moment (field-independent basis, Debye-Ang):
   XX=             -8.2160   YY=              1.6217   ZZ=             -7.8603
   XY=              0.0000   XZ=              0.0000   YZ=              0.0000

 Normal termination of Gaussian 09 at Mon Sep 29 16:38:08 2014.
