 Gaussian 09, Revision D.01,
 Gaussian 09:  ES64L-G09RevD.01 24-Apr-2013

 -----------------
 #RHF 6-31G(d',p')
 -----------------

 -------------------
 H2O.r1.50theta110.0
 -------------------
 Symbolic Z-matrix:
 Charge =  0 Multiplicity = 1

                         Standard orientation:
 ---------------------------------------------------------------------
 Center     Atomic      Atomic             Coordinates (Angstroms)
 Number     Number       Type             X           Y           Z
 ---------------------------------------------------------------------
      1          8           0        0.000000    0.000000    0.172073
      2          1           0        0.000000    1.228728   -0.688292
      3          1           0        0.000000   -1.228728   -0.688292
 ---------------------------------------------------------------------

 SCF Done:  E(RHF) =  -75.7751648473     A.U. after   11 cycles

 The electronic state is 1-A1.
 Alpha  occ. eigenvalues --  -20.63348  -1.20684  -0.50817  -0.49287  -0.47229
 Alpha virt. eigenvalues --    0.05852   0.12663   0.90822   0.96648   1.12154
 Alpha virt. eigenvalues --    1.16974   1.31040   1.35802   1.49695   1.58635
 Alpha virt. eigenvalues --    1.59174   1.64683   1.81352   2.05997   3.22658

 Mulliken charges:
               1
     1  O   -0.499443
     2  H    0.249721
     3  H    0.249721
 Sum of Mulliken charges =   0.00000

 Dipole moment (field-independent basis, Debye):
    X=              0.0000    Y=              0.0000    Z=             -2.1913  Tot=              2.1913
 Quadrupole moment (field-independent basis, Debye-Ang):
   XX=             -8.1504   YY=             -2.5387   ZZ=             -6.1749
   XY=              0.0000   XZ=              0.0000   YZ=              0.0000

 Normal termination of Gaussian 09 at Mon Sep 29 16:36:35 2014.
