 Gaussian 09, Revision D.01,
 Gaussian 09:  ES64L-G09RevD.01 24-Apr-2013

 -----------------
 #RHF 6-31G(d',p')
 -----------------

 -------------------
 H2O.r0.75theta138.0
 -------------------
 Symbolic Z-matrix:
 Charge =  0 Multiplicity = 1

                         Standard orientation:
 ---------------------------------------------------------------------
 Center     Atomic      Atomic             Coordinates (Angstroms)
 Number     Number       Type             X           Y           Z
 ---------------------------------------------------------------------
      1          8           0        0.000000    0.000000    0.053755
      2          1           0        0.000000    0.700185   -0.215021
      3          1           0        0.000000   -0.700185   -0.215021
 ---------------------------------------------------------------------

 SCF Done:  E(RHF) =  -75.8801800090     A.U. after    9 cycles

 The electronic state is 1-A1.
 Alpha  occ. eigenvalues --  -20.50346  -1.44010  -0.90719  -0.54159  -0.50999
 Alpha virt. eigenvalues --    0.25986   0.32986   1.03509   1.12838   1.13685
 Alpha virt. eigenvalues --    1.26431   1.32788   1.48914   1.49947   2.02429
 Alpha virt. eigenvalues --    2.04821   2.05283   3.06100   3.35556   3.40263

 Mulliken charges:
               1
     1  O   -0.456760
     2  H    0.228380
     3  H    0.228380
 Sum of Mulliken charges =   0.00000

 Dipole moment (field-independent basis, Debye):
    X=              0.0000    Y=              0.0000    Z=             -1.3033  Tot=              1.3033
 Quadrupole moment (field-independent basis, Debye-Ang):
   XX=             -6.6154   YY=             -3.6683   ZZ=             -6.3393
   XY=              0.0000   XZ=              0.0000   YZ=              0.0000

 Normal termination of Gaussian 09 at Mon Sep 29 16:21:28 2014.
