 Gaussian 09, Revision D.01,
 Gaussian 09:  ES64L-G09RevD.01 24-Apr-2013

 -----------------
 #RHF 6-31G(d',p')
 -----------------

 -------------------
 H2O.r1.00theta127.0
 -------------------
 Symbolic Z-matrix:
 Charge =  0 Multiplicity = 1

                         Standard orientation:
 ---------------------------------------------------------------------
 Center     Atomic      Atomic             Coordinates (Angstroms)
 Number     Number       Type             X           Y           Z
 ---------------------------------------------------------------------
      1          8           0        0.000000    0.000000    0.089240
      2          1           0        0.000000    0.894934   -0.356958
      3          1           0        0.000000   -0.894934   -0.356958
 ---------------------------------------------------------------------

 SCF Done:  E(RHF) =  -76.0048640734     A.U. after   10 cycles

 The electronic state is 1-A1.
 Alpha  occ. eigenvalues --  -20.54816  -1.30201  -0.71241  -0.51716  -0.48314
 Alpha virt. eigenvalues --    0.19854   0.29658   0.93085   1.06798   1.16443
 Alpha virt. eigenvalues --    1.17662   1.24480   1.44820   1.45738   1.80134
 Alpha virt. eigenvalues --    1.82975   1.84821   2.40621   2.49974   3.36085

 Mulliken charges:
               1
     1  O   -0.613129
     2  H    0.306564
     3  H    0.306564
 Sum of Mulliken charges =   0.00000

 Dipole moment (field-independent basis, Debye):
    X=              0.0000    Y=              0.0000    Z=             -1.7808  Tot=              1.7808
 Quadrupole moment (field-independent basis, Debye-Ang):
   XX=             -7.2482   YY=             -2.9708   ZZ=             -6.5948
   XY=              0.0000   XZ=              0.0000   YZ=              0.0000

 Normal termination of Gaussian 09 at Mon Sep 29 16:26:37 2014.
