 Gaussian 09, Revision D.01,
 Gaussian 09:  ES64L-G09RevD.01 24-Apr-2013

 -----------------
 #RHF 6-31G(d',p')
 -----------------

 -------------------
 H2O.r1.80theta125.0
 -------------------
 Symbolic Z-matrix:
 Charge =  0 Multiplicity = 1

                         Standard orientation:
 ---------------------------------------------------------------------
 Center     Atomic      Atomic             Coordinates (Angstroms)
 Number     Number       Type             X           Y           Z
 ---------------------------------------------------------------------
      1          8           0        0.000000    0.000000    0.166230
      2          1           0        0.000000    1.596619   -0.664918
      3          1           0        0.000000   -1.596619   -0.664918
 ---------------------------------------------------------------------

 SCF Done:  E(RHF) =  -75.6273808692     A.U. after   13 cycles

 The electronic state is 1-A1.
 Alpha  occ. eigenvalues --  -20.64742  -1.18773  -0.49414  -0.44345  -0.42856
 Alpha virt. eigenvalues --   -0.02726   0.06239   0.95323   0.97101   1.13374
 Alpha virt. eigenvalues --    1.17816   1.18244   1.24648   1.49829   1.49841
 Alpha virt. eigenvalues --    1.54237   1.57057   1.90977   1.91592   3.20701

 Mulliken charges:
               1
     1  O   -0.419484
     2  H    0.209742
     3  H    0.209742
 Sum of Mulliken charges =   0.00000

 Dipole moment (field-independent basis, Debye):
    X=              0.0000    Y=              0.0000    Z=             -1.7788  Tot=              1.7788
 Quadrupole moment (field-independent basis, Debye-Ang):
   XX=             -8.4216   YY=             -0.4268   ZZ=             -6.7775
   XY=              0.0000   XZ=              0.0000   YZ=              0.0000

 Normal termination of Gaussian 09 at Mon Sep 29 16:42:48 2014.
