 Gaussian 09, Revision D.01,
 Gaussian 09:  ES64L-G09RevD.01 24-Apr-2013

 -----------------
 #RHF 6-31G(d',p')
 -----------------

 -------------------
 H2O.r0.90theta143.0
 -------------------
 Symbolic Z-matrix:
 Charge =  0 Multiplicity = 1

                         Standard orientation:
 ---------------------------------------------------------------------
 Center     Atomic      Atomic             Coordinates (Angstroms)
 Number     Number       Type             X           Y           Z
 ---------------------------------------------------------------------
      1          8           0        0.000000    0.000000    0.057115
      2          1           0        0.000000    0.853491   -0.228459
      3          1           0        0.000000   -0.853491   -0.228459
 ---------------------------------------------------------------------

 SCF Done:  E(RHF) =  -75.9945143692     A.U. after   10 cycles

 The electronic state is 1-A1.
 Alpha  occ. eigenvalues --  -20.52213  -1.33984  -0.79268  -0.50617  -0.48562
 Alpha virt. eigenvalues --    0.22461   0.31289   0.91460   1.16772   1.17702
 Alpha virt. eigenvalues --    1.18064   1.28340   1.44673   1.47355   1.88500
 Alpha virt. eigenvalues --    1.91112   1.91742   2.58135   2.87932   3.32043

 Mulliken charges:
               1
     1  O   -0.614204
     2  H    0.307102
     3  H    0.307102
 Sum of Mulliken charges =   0.00000

 Dipole moment (field-independent basis, Debye):
    X=              0.0000    Y=              0.0000    Z=             -1.3020  Tot=              1.3020
 Quadrupole moment (field-independent basis, Debye-Ang):
   XX=             -7.0197   YY=             -2.8336   ZZ=             -6.7413
   XY=              0.0000   XZ=              0.0000   YZ=              0.0000

 Normal termination of Gaussian 09 at Mon Sep 29 16:24:48 2014.
