 Gaussian 09, Revision D.01,
 Gaussian 09:  ES64L-G09RevD.01 24-Apr-2013

 -----------------
 #RHF 6-31G(d',p')
 -----------------

 -------------------
 H2O.r0.95theta108.0
 -------------------
 Symbolic Z-matrix:
 Charge =  0 Multiplicity = 1

                         Standard orientation:
 ---------------------------------------------------------------------
 Center     Atomic      Atomic             Coordinates (Angstroms)
 Number     Number       Type             X           Y           Z
 ---------------------------------------------------------------------
      1          8           0        0.000000    0.000000    0.111679
      2          1           0        0.000000    0.768566   -0.446717
      3          1           0        0.000000   -0.768566   -0.446717
 ---------------------------------------------------------------------

 SCF Done:  E(RHF) =  -76.0240687734     A.U. after   10 cycles

 The electronic state is 1-A1.
 Alpha  occ. eigenvalues --  -20.55331  -1.34099  -0.71438  -0.56283  -0.49606
 Alpha virt. eigenvalues --    0.21525   0.30683   1.01184   1.01898   1.16825
 Alpha virt. eigenvalues --    1.16982   1.25569   1.42820   1.50650   1.74155
 Alpha virt. eigenvalues --    1.74263   1.96943   2.53070   2.53221   3.48711

 Mulliken charges:
               1
     1  O   -0.530624
     2  H    0.265312
     3  H    0.265312
 Sum of Mulliken charges =   0.00000

 Dipole moment (field-independent basis, Debye):
    X=              0.0000    Y=              0.0000    Z=             -2.1088  Tot=              2.1088
 Quadrupole moment (field-independent basis, Debye-Ang):
   XX=             -7.1117   YY=             -4.0061   ZZ=             -6.0741
   XY=              0.0000   XZ=              0.0000   YZ=              0.0000

 Normal termination of Gaussian 09 at Mon Sep 29 16:25:25 2014.
