 Gaussian 09, Revision D.01,
 Gaussian 09:  ES64L-G09RevD.01 24-Apr-2013

 -----------------
 #RHF 6-31G(d',p')
 -----------------

 ------------------
 H2O.r1.40theta86.0
 ------------------
 Symbolic Z-matrix:
 Charge =  0 Multiplicity = 1

                         Standard orientation:
 ---------------------------------------------------------------------
 Center     Atomic      Atomic             Coordinates (Angstroms)
 Number     Number       Type             X           Y           Z
 ---------------------------------------------------------------------
      1          8           0        0.000000    0.000000    0.204779
      2          1           0        0.000000    0.954798   -0.819116
      3          1           0        0.000000   -0.954798   -0.819116
 ---------------------------------------------------------------------

 SCF Done:  E(RHF) =  -75.8305978813     A.U. after   11 cycles

 The electronic state is 1-A1.
 Alpha  occ. eigenvalues --  -20.63592  -1.22762  -0.51992  -0.51641  -0.50088
 Alpha virt. eigenvalues --    0.10076   0.13652   0.91398   0.94677   1.11558
 Alpha virt. eigenvalues --    1.17577   1.27667   1.38606   1.51525   1.60542
 Alpha virt. eigenvalues --    1.63493   1.71060   1.82951   2.06167   3.23947

 Mulliken charges:
               1
     1  O   -0.488360
     2  H    0.244180
     3  H    0.244180
 Sum of Mulliken charges =   0.00000

 Dipole moment (field-independent basis, Debye):
    X=              0.0000    Y=              0.0000    Z=             -2.6162  Tot=              2.6162
 Quadrupole moment (field-independent basis, Debye-Ang):
   XX=             -8.0226   YY=             -4.5905   ZZ=             -5.1838
   XY=              0.0000   XZ=              0.0000   YZ=              0.0000

 Normal termination of Gaussian 09 at Mon Sep 29 16:34:15 2014.
