 Gaussian 09, Revision D.01,
 Gaussian 09:  ES64L-G09RevD.01 24-Apr-2013

 -----------------
 #RHF 6-31G(d',p')
 -----------------

 ------------------
 H2O.r1.30theta79.0
 ------------------
 Symbolic Z-matrix:
 Charge =  0 Multiplicity = 1

                         Standard orientation:
 ---------------------------------------------------------------------
 Center     Atomic      Atomic             Coordinates (Angstroms)
 Number     Number       Type             X           Y           Z
 ---------------------------------------------------------------------
      1          8           0        0.000000    0.000000    0.200622
      2          1           0        0.000000    0.826902   -0.802490
      3          1           0        0.000000   -0.826902   -0.802490
 ---------------------------------------------------------------------

 SCF Done:  E(RHF) =  -75.8790579730     A.U. after   11 cycles

 The electronic state is 1-A1.
 Alpha  occ. eigenvalues --  -20.62550  -1.24535  -0.54758  -0.53739  -0.50116
 Alpha virt. eigenvalues --    0.12609   0.17005   0.93097   0.93436   1.11950
 Alpha virt. eigenvalues --    1.17972   1.27579   1.32268   1.54434   1.60482
 Alpha virt. eigenvalues --    1.64291   1.75129   2.03258   2.03447   3.26221

 Mulliken charges:
               1
     1  O   -0.495478
     2  H    0.247739
     3  H    0.247739
 Sum of Mulliken charges =   0.00000

 Dipole moment (field-independent basis, Debye):
    X=              0.0000    Y=              0.0000    Z=             -2.6926  Tot=              2.6926
 Quadrupole moment (field-independent basis, Debye-Ang):
   XX=             -7.8559   YY=             -5.1556   ZZ=             -5.0212
   XY=              0.0000   XZ=              0.0000   YZ=              0.0000

 Normal termination of Gaussian 09 at Mon Sep 29 16:32:04 2014.
