 Gaussian 09, Revision D.01,
 Gaussian 09:  ES64L-G09RevD.01 24-Apr-2013

 -----------------
 #RHF 6-31G(d',p')
 -----------------

 ------------------
 H2O.r1.25theta74.0
 ------------------
 Symbolic Z-matrix:
 Charge =  0 Multiplicity = 1

                         Standard orientation:
 ---------------------------------------------------------------------
 Center     Atomic      Atomic             Coordinates (Angstroms)
 Number     Number       Type             X           Y           Z
 ---------------------------------------------------------------------
      1          8           0        0.000000    0.000000    0.199659
      2          1           0        0.000000    0.752269   -0.798636
      3          1           0        0.000000   -0.752269   -0.798636
 ---------------------------------------------------------------------

 SCF Done:  E(RHF) =  -75.9000088604     A.U. after   11 cycles

 The electronic state is 1-A1.
 Alpha  occ. eigenvalues --  -20.61971  -1.25770  -0.56730  -0.54392  -0.50186
 Alpha virt. eigenvalues --    0.13702   0.18835   0.93133   0.93870   1.12173
 Alpha virt. eigenvalues --    1.18858   1.26802   1.27394   1.56754   1.57604
 Alpha virt. eigenvalues --    1.65180   1.79132   2.05653   2.17149   3.27450

 Mulliken charges:
               1
     1  O   -0.491413
     2  H    0.245707
     3  H    0.245707
 Sum of Mulliken charges =   0.00000

 Dipole moment (field-independent basis, Debye):
    X=              0.0000    Y=              0.0000    Z=             -2.7339  Tot=              2.7339
 Quadrupole moment (field-independent basis, Debye-Ang):
   XX=             -7.7585   YY=             -5.4797   ZZ=             -4.9009
   XY=              0.0000   XZ=              0.0000   YZ=              0.0000

 Normal termination of Gaussian 09 at Mon Sep 29 16:31:00 2014.
