 Gaussian 09, Revision D.01,
 Gaussian 09:  ES64L-G09RevD.01 24-Apr-2013

 -----------------
 #RHF 6-31G(d',p')
 -----------------

 -------------------
 H2O.r1.35theta160.0
 -------------------
 Symbolic Z-matrix:
 Charge =  0 Multiplicity = 1

                         Standard orientation:
 ---------------------------------------------------------------------
 Center     Atomic      Atomic             Coordinates (Angstroms)
 Number     Number       Type             X           Y           Z
 ---------------------------------------------------------------------
      1          8           0        0.000000    0.000000    0.046885
      2          1           0        0.000000    1.329490   -0.187540
      3          1           0        0.000000   -1.329490   -0.187540
 ---------------------------------------------------------------------

 SCF Done:  E(RHF) =  -75.7902082132     A.U. after   12 cycles

 The electronic state is 1-A1.
 Alpha  occ. eigenvalues --  -20.53922  -1.16964  -0.54656  -0.43484  -0.42439
 Alpha virt. eigenvalues --    0.03211   0.22706   0.89036   0.93806   1.16839
 Alpha virt. eigenvalues --    1.17379   1.43059   1.43214   1.45918   1.64724
 Alpha virt. eigenvalues --    1.68013   1.69621   1.82505   2.22651   3.27452

 Mulliken charges:
               1
     1  O   -0.780085
     2  H    0.390043
     3  H    0.390043
 Sum of Mulliken charges =   0.00000

 Dipole moment (field-independent basis, Debye):
    X=              0.0000    Y=              0.0000    Z=             -0.8789  Tot=              0.8789
 Quadrupole moment (field-independent basis, Debye-Ang):
   XX=             -7.9590   YY=              1.0139   ZZ=             -7.7556
   XY=              0.0000   XZ=              0.0000   YZ=              0.0000

 Normal termination of Gaussian 09 at Mon Sep 29 16:34:04 2014.
