 Gaussian 09, Revision D.01,
 Gaussian 09:  ES64L-G09RevD.01 24-Apr-2013

 -----------------
 #RHF 6-31G(d',p')
 -----------------

 -------------------
 H2O.r1.80theta116.0
 -------------------
 Symbolic Z-matrix:
 Charge =  0 Multiplicity = 1

                         Standard orientation:
 ---------------------------------------------------------------------
 Center     Atomic      Atomic             Coordinates (Angstroms)
 Number     Number       Type             X           Y           Z
 ---------------------------------------------------------------------
      1          8           0        0.000000    0.000000    0.190771
      2          1           0        0.000000    1.526487   -0.763084
      3          1           0        0.000000   -1.526487   -0.763084
 ---------------------------------------------------------------------

 SCF Done:  E(RHF) =  -75.6335026094     A.U. after   13 cycles

 The electronic state is 1-A1.
 Alpha  occ. eigenvalues --  -20.65537  -1.19291  -0.49958  -0.44554  -0.43249
 Alpha virt. eigenvalues --   -0.01574   0.05137   0.94524   0.98193   1.13013
 Alpha virt. eigenvalues --    1.17622   1.18854   1.23809   1.50044   1.50166
 Alpha virt. eigenvalues --    1.53847   1.57146   1.86112   1.96215   3.19989

 Mulliken charges:
               1
     1  O   -0.403565
     2  H    0.201783
     3  H    0.201783
 Sum of Mulliken charges =   0.00000

 Dipole moment (field-independent basis, Debye):
    X=              0.0000    Y=              0.0000    Z=             -1.9998  Tot=              1.9998
 Quadrupole moment (field-independent basis, Debye-Ang):
   XX=             -8.4232   YY=             -1.2507   ZZ=             -6.3236
   XY=              0.0000   XZ=              0.0000   YZ=              0.0000

 Normal termination of Gaussian 09 at Mon Sep 29 16:42:42 2014.
