 Gaussian 09, Revision D.01,
 Gaussian 09:  ES64L-G09RevD.01 24-Apr-2013

 -----------------
 #RHF 6-31G(d',p')
 -----------------

 -------------------
 H2O.r1.10theta131.0
 -------------------
 Symbolic Z-matrix:
 Charge =  0 Multiplicity = 1

                         Standard orientation:
 ---------------------------------------------------------------------
 Center     Atomic      Atomic             Coordinates (Angstroms)
 Number     Number       Type             X           Y           Z
 ---------------------------------------------------------------------
      1          8           0        0.000000    0.000000    0.091233
      2          1           0        0.000000    1.000957   -0.364930
      3          1           0        0.000000   -1.000957   -0.364930
 ---------------------------------------------------------------------

 SCF Done:  E(RHF) =  -75.9642768721     A.U. after   10 cycles

 The electronic state is 1-A1.
 Alpha  occ. eigenvalues --  -20.55823  -1.26016  -0.66099  -0.49489  -0.47423
 Alpha virt. eigenvalues --    0.16167   0.27393   0.90036   1.02921   1.16624
 Alpha virt. eigenvalues --    1.17236   1.25807   1.44361   1.45091   1.76997
 Alpha virt. eigenvalues --    1.78216   1.79925   2.22852   2.30732   3.31037

 Mulliken charges:
               1
     1  O   -0.652347
     2  H    0.326173
     3  H    0.326173
 Sum of Mulliken charges =   0.00000

 Dipole moment (field-independent basis, Debye):
    X=              0.0000    Y=              0.0000    Z=             -1.7380  Tot=              1.7380
 Quadrupole moment (field-independent basis, Debye-Ang):
   XX=             -7.4772   YY=             -2.3238   ZZ=             -6.8105
   XY=              0.0000   XZ=              0.0000   YZ=              0.0000

 Normal termination of Gaussian 09 at Mon Sep 29 16:28:40 2014.
