 Gaussian 09, Revision D.01,
 Gaussian 09:  ES64L-G09RevD.01 24-Apr-2013

 -----------------
 #RHF 6-31G(d',p')
 -----------------

 -------------------
 H2O.r1.15theta153.0
 -------------------
 Symbolic Z-matrix:
 Charge =  0 Multiplicity = 1

                         Standard orientation:
 ---------------------------------------------------------------------
 Center     Atomic      Atomic             Coordinates (Angstroms)
 Number     Number       Type             X           Y           Z
 ---------------------------------------------------------------------
      1          8           0        0.000000    0.000000    0.053692
      2          1           0        0.000000    1.118225   -0.214770
      3          1           0        0.000000   -1.118225   -0.214770
 ---------------------------------------------------------------------

 SCF Done:  E(RHF) =  -75.9097269574     A.U. after   11 cycles

 The electronic state is 1-A1.
 Alpha  occ. eigenvalues --  -20.53470  -1.22326  -0.63968  -0.45332  -0.45139
 Alpha virt. eigenvalues --    0.11863   0.27140   0.86655   1.00800   1.18194
 Alpha virt. eigenvalues --    1.18300   1.35853   1.44020   1.45853   1.74869
 Alpha virt. eigenvalues --    1.77071   1.77503   2.06287   2.36741   3.27288

 Mulliken charges:
               1
     1  O   -0.764389
     2  H    0.382195
     3  H    0.382195
 Sum of Mulliken charges =   0.00000

 Dipole moment (field-independent basis, Debye):
    X=              0.0000    Y=              0.0000    Z=             -1.1220  Tot=              1.1220
 Quadrupole moment (field-independent basis, Debye-Ang):
   XX=             -7.5999   YY=             -0.7842   ZZ=             -7.3596
   XY=              0.0000   XZ=              0.0000   YZ=              0.0000

 Normal termination of Gaussian 09 at Mon Sep 29 16:29:53 2014.
