 Gaussian 09, Revision D.01,
 Gaussian 09:  ES64L-G09RevD.01 24-Apr-2013

 -----------------
 #RHF 6-31G(d',p')
 -----------------

 ------------------
 H2O.r1.75theta85.0
 ------------------
 Symbolic Z-matrix:
 Charge =  0 Multiplicity = 1

                         Standard orientation:
 ---------------------------------------------------------------------
 Center     Atomic      Atomic             Coordinates (Angstroms)
 Number     Number       Type             X           Y           Z
 ---------------------------------------------------------------------
      1          8           0        0.000000    0.000000    0.258047
      2          1           0        0.000000    1.182283   -1.032188
      3          1           0        0.000000   -1.182283   -1.032188
 ---------------------------------------------------------------------

 SCF Done:  E(RHF) =  -75.6637021169     A.U. after   13 cycles

 The electronic state is 1-A1.
 Alpha  occ. eigenvalues --  -20.66619  -1.20594  -0.50997  -0.46469  -0.44571
 Alpha virt. eigenvalues --    0.02251   0.03080   0.92346   0.99465   1.11840
 Alpha virt. eigenvalues --    1.17388   1.21195   1.23008   1.50432   1.52252
 Alpha virt. eigenvalues --    1.56945   1.57665   1.73003   2.10150   3.18641

 Mulliken charges:
               1
     1  O   -0.375070
     2  H    0.187535
     3  H    0.187535
 Sum of Mulliken charges =   0.00000

 Dipole moment (field-independent basis, Debye):
    X=              0.0000    Y=              0.0000    Z=             -2.5443  Tot=              2.5443
 Quadrupole moment (field-independent basis, Debye-Ang):
   XX=             -8.4146   YY=             -4.1909   ZZ=             -4.7183
   XY=              0.0000   XZ=              0.0000   YZ=              0.0000

 Normal termination of Gaussian 09 at Mon Sep 29 16:41:23 2014.
