 Gaussian 09, Revision D.01,
 Gaussian 09:  ES64L-G09RevD.01 24-Apr-2013

 -----------------
 #RHF 6-31G(d',p')
 -----------------

 -------------------
 H2O.r1.85theta126.0
 -------------------
 Symbolic Z-matrix:
 Charge =  0 Multiplicity = 1

                         Standard orientation:
 ---------------------------------------------------------------------
 Center     Atomic      Atomic             Coordinates (Angstroms)
 Number     Number       Type             X           Y           Z
 ---------------------------------------------------------------------
      1          8           0        0.000000    0.000000    0.167976
      2          1           0        0.000000    1.648362   -0.671906
      3          1           0        0.000000   -1.648362   -0.671906
 ---------------------------------------------------------------------

 SCF Done:  E(RHF) =  -75.6069392551     A.U. after   13 cycles

 The electronic state is 1-A1.
 Alpha  occ. eigenvalues --  -20.64905  -1.18628  -0.49473  -0.43287  -0.42552
 Alpha virt. eigenvalues --   -0.03850   0.05372   0.95893   0.97450   1.13721
 Alpha virt. eigenvalues --    1.16264   1.18267   1.22321   1.49670   1.49720
 Alpha virt. eigenvalues --    1.53503   1.55900   1.89155   1.90541   3.20528

 Mulliken charges:
               1
     1  O   -0.405750
     2  H    0.202875
     3  H    0.202875
 Sum of Mulliken charges =   0.00000

 Dipole moment (field-independent basis, Debye):
    X=              0.0000    Y=              0.0000    Z=             -1.7495  Tot=              1.7495
 Quadrupole moment (field-independent basis, Debye-Ang):
   XX=             -8.4519   YY=             -0.1685   ZZ=             -6.8181
   XY=              0.0000   XZ=              0.0000   YZ=              0.0000

 Normal termination of Gaussian 09 at Mon Sep 29 16:43:50 2014.
