 Gaussian 09, Revision D.01,
 Gaussian 09:  ES64L-G09RevD.01 24-Apr-2013

 -----------------
 #RHF 6-31G(d',p')
 -----------------

 -------------------
 H2O.r1.30theta133.0
 -------------------
 Symbolic Z-matrix:
 Charge =  0 Multiplicity = 1

                         Standard orientation:
 ---------------------------------------------------------------------
 Center     Atomic      Atomic             Coordinates (Angstroms)
 Number     Number       Type             X           Y           Z
 ---------------------------------------------------------------------
      1          8           0        0.000000    0.000000    0.103675
      2          1           0        0.000000    1.192178   -0.414699
      3          1           0        0.000000   -1.192178   -0.414699
 ---------------------------------------------------------------------

 SCF Done:  E(RHF) =  -75.8581635095     A.U. after   11 cycles

 The electronic state is 1-A1.
 Alpha  occ. eigenvalues --  -20.58272  -1.21069  -0.57441  -0.46957  -0.46639
 Alpha virt. eigenvalues --    0.08833   0.21652   0.89596   0.96863   1.14933
 Alpha virt. eigenvalues --    1.16116   1.32409   1.42606   1.46737   1.68406
 Alpha virt. eigenvalues --    1.69205   1.70842   1.99436   2.03417   3.26232

 Mulliken charges:
               1
     1  O   -0.639813
     2  H    0.319907
     3  H    0.319907
 Sum of Mulliken charges =   0.00000

 Dipole moment (field-independent basis, Debye):
    X=              0.0000    Y=              0.0000    Z=             -1.7062  Tot=              1.7062
 Quadrupole moment (field-independent basis, Debye-Ang):
   XX=             -7.8633   YY=             -1.3464   ZZ=             -7.0382
   XY=              0.0000   XZ=              0.0000   YZ=              0.0000

 Normal termination of Gaussian 09 at Mon Sep 29 16:32:41 2014.
