 Gaussian 09, Revision D.01,
 Gaussian 09:  ES64L-G09RevD.01 24-Apr-2013

 -----------------
 #RHF 6-31G(d',p')
 -----------------

 -------------------
 H2O.r0.70theta134.0
 -------------------
 Symbolic Z-matrix:
 Charge =  0 Multiplicity = 1

                         Standard orientation:
 ---------------------------------------------------------------------
 Center     Atomic      Atomic             Coordinates (Angstroms)
 Number     Number       Type             X           Y           Z
 ---------------------------------------------------------------------
      1          8           0        0.000000    0.000000    0.054702
      2          1           0        0.000000    0.644353   -0.218809
      3          1           0        0.000000   -0.644353   -0.218809
 ---------------------------------------------------------------------

 SCF Done:  E(RHF) =  -75.7758251711     A.U. after    9 cycles

 The electronic state is 1-A1.
 Alpha  occ. eigenvalues --  -20.49764  -1.48101  -0.94482  -0.55786  -0.51904
 Alpha virt. eigenvalues --    0.26567   0.33491   1.09532   1.11502   1.12064
 Alpha virt. eigenvalues --    1.24730   1.37404   1.51113   1.51751   2.05245
 Alpha virt. eigenvalues --    2.09075   2.14060   3.23022   3.46642   3.49881

 Mulliken charges:
               1
     1  O   -0.390907
     2  H    0.195453
     3  H    0.195453
 Sum of Mulliken charges =   0.00000

 Dipole moment (field-independent basis, Debye):
    X=              0.0000    Y=              0.0000    Z=             -1.3499  Tot=              1.3499
 Quadrupole moment (field-independent basis, Debye-Ang):
   XX=             -6.4732   YY=             -3.9105   ZZ=             -6.1675
   XY=              0.0000   XZ=              0.0000   YZ=              0.0000

 Normal termination of Gaussian 09 at Mon Sep 29 16:20:15 2014.
