 Gaussian 09, Revision D.01,
 Gaussian 09:  ES64L-G09RevD.01 24-Apr-2013

 -----------------
 #RHF 6-31G(d',p')
 -----------------

 ------------------
 H2O.r0.70theta94.0
 ------------------
 Symbolic Z-matrix:
 Charge =  0 Multiplicity = 1

                         Standard orientation:
 ---------------------------------------------------------------------
 Center     Atomic      Atomic             Coordinates (Angstroms)
 Number     Number       Type             X           Y           Z
 ---------------------------------------------------------------------
      1          8           0        0.000000    0.000000    0.095480
      2          1           0        0.000000    0.511948   -0.381919
      3          1           0        0.000000   -0.511948   -0.381919
 ---------------------------------------------------------------------

 SCF Done:  E(RHF) =  -75.7691455037     A.U. after    9 cycles

 The electronic state is 1-A1.
 Alpha  occ. eigenvalues --  -20.50797  -1.53728  -0.83325  -0.63900  -0.52692
 Alpha virt. eigenvalues --    0.24778   0.35402   1.05009   1.08738   1.10597
 Alpha virt. eigenvalues --    1.37536   1.41642   1.42935   1.66413   1.74847
 Alpha virt. eigenvalues --    1.79329   2.40285   3.15587   3.38698   3.81212

 Mulliken charges:
               1
     1  O   -0.369413
     2  H    0.184707
     3  H    0.184707
 Sum of Mulliken charges =   0.00000

 Dipole moment (field-independent basis, Debye):
    X=              0.0000    Y=              0.0000    Z=             -2.0044  Tot=              2.0044
 Quadrupole moment (field-independent basis, Debye-Ang):
   XX=             -6.4675   YY=             -4.8075   ZZ=             -5.5361
   XY=              0.0000   XZ=              0.0000   YZ=              0.0000

 Normal termination of Gaussian 09 at Mon Sep 29 16:19:50 2014.
