 Gaussian 09, Revision D.01,
 Gaussian 09:  ES64L-G09RevD.01 24-Apr-2013

 -----------------
 #RHF 6-31G(d',p')
 -----------------

 ------------------
 H2O.r1.20theta84.0
 ------------------
 Symbolic Z-matrix:
 Charge =  0 Multiplicity = 1

                         Standard orientation:
 ---------------------------------------------------------------------
 Center     Atomic      Atomic             Coordinates (Angstroms)
 Number     Number       Type             X           Y           Z
 ---------------------------------------------------------------------
      1          8           0        0.000000    0.000000    0.178355
      2          1           0        0.000000    0.802957   -0.713419
      3          1           0        0.000000   -0.802957   -0.713419
 ---------------------------------------------------------------------

 SCF Done:  E(RHF) =  -75.9327626850     A.U. after   10 cycles

 The electronic state is 1-A1.
 Alpha  occ. eigenvalues --  -20.60956  -1.26434  -0.57045  -0.56160  -0.49867
 Alpha virt. eigenvalues --    0.15220   0.21289   0.93402   0.94806   1.13500
 Alpha virt. eigenvalues --    1.18101   1.27049   1.33486   1.54106   1.61571
 Alpha virt. eigenvalues --    1.66421   1.82156   2.11502   2.11773   3.31096

 Mulliken charges:
               1
     1  O   -0.513990
     2  H    0.256995
     3  H    0.256995
 Sum of Mulliken charges =   0.00000

 Dipole moment (field-independent basis, Debye):
    X=              0.0000    Y=              0.0000    Z=             -2.6126  Tot=              2.6126
 Quadrupole moment (field-independent basis, Debye-Ang):
   XX=             -7.6653   YY=             -4.9258   ZZ=             -5.3038
   XY=              0.0000   XZ=              0.0000   YZ=              0.0000

 Normal termination of Gaussian 09 at Mon Sep 29 16:30:08 2014.
