 Gaussian 09, Revision D.01,
 Gaussian 09:  ES64L-G09RevD.01 24-Apr-2013

 -----------------
 #RHF 6-31G(d',p')
 -----------------

 -------------------
 H2O.r1.90theta143.0
 -------------------
 Symbolic Z-matrix:
 Charge =  0 Multiplicity = 1

                         Standard orientation:
 ---------------------------------------------------------------------
 Center     Atomic      Atomic             Coordinates (Angstroms)
 Number     Number       Type             X           Y           Z
 ---------------------------------------------------------------------
      1          8           0        0.000000    0.000000    0.120576
      2          1           0        0.000000    1.801815   -0.482303
      3          1           0        0.000000   -1.801815   -0.482303
 ---------------------------------------------------------------------

 SCF Done:  E(RHF) =  -75.5740695770     A.U. after   13 cycles

 The electronic state is 1-A1.
 Alpha  occ. eigenvalues --  -20.62808  -1.17137  -0.48065  -0.42119  -0.41240
 Alpha virt. eigenvalues --   -0.07241   0.06902   0.96213   0.97004   1.15058
 Alpha virt. eigenvalues --    1.15373   1.18295   1.21120   1.48920   1.48966
 Alpha virt. eigenvalues --    1.53191   1.54413   1.80403   1.96917   3.21528

 Mulliken charges:
               1
     1  O   -0.431113
     2  H    0.215557
     3  H    0.215557
 Sum of Mulliken charges =   0.00000

 Dipole moment (field-independent basis, Debye):
    X=              0.0000    Y=              0.0000    Z=             -1.2833  Tot=              1.2833
 Quadrupole moment (field-independent basis, Debye-Ang):
   XX=             -8.4775   YY=              1.5982   ZZ=             -7.5829
   XY=              0.0000   XZ=              0.0000   YZ=              0.0000

 Normal termination of Gaussian 09 at Mon Sep 29 16:45:02 2014.
