 Gaussian 09, Revision D.01,
 Gaussian 09:  ES64L-G09RevD.01 24-Apr-2013

 -----------------
 #RHF 6-31G(d',p')
 -----------------

 -------------------
 H2O.r1.70theta104.0
 -------------------
 Symbolic Z-matrix:
 Charge =  0 Multiplicity = 1

                         Standard orientation:
 ---------------------------------------------------------------------
 Center     Atomic      Atomic             Coordinates (Angstroms)
 Number     Number       Type             X           Y           Z
 ---------------------------------------------------------------------
      1          8           0        0.000000    0.000000    0.209325
      2          1           0        0.000000    1.339618   -0.837300
      3          1           0        0.000000   -1.339618   -0.837300
 ---------------------------------------------------------------------

 SCF Done:  E(RHF) =  -75.6821403382     A.U. after   12 cycles

 The electronic state is 1-A1.
 Alpha  occ. eigenvalues --  -20.65655  -1.20073  -0.50241  -0.46513  -0.44937
 Alpha virt. eigenvalues --    0.01849   0.06091   0.92333   0.98533   1.12125
 Alpha virt. eigenvalues --    1.17832   1.24073   1.26244   1.50304   1.52279
 Alpha virt. eigenvalues --    1.54742   1.59513   1.79888   2.06362   3.19774

 Mulliken charges:
               1
     1  O   -0.418055
     2  H    0.209028
     3  H    0.209028
 Sum of Mulliken charges =   0.00000

 Dipole moment (field-independent basis, Debye):
    X=              0.0000    Y=              0.0000    Z=             -2.2755  Tot=              2.2755
 Quadrupole moment (field-independent basis, Debye-Ang):
   XX=             -8.3547   YY=             -2.5970   ZZ=             -5.7544
   XY=              0.0000   XZ=              0.0000   YZ=              0.0000

 Normal termination of Gaussian 09 at Mon Sep 29 16:40:35 2014.
