 Gaussian 09, Revision D.01,
 Gaussian 09:  ES64L-G09RevD.01 24-Apr-2013

 -----------------
 #RHF 6-31G(d',p')
 -----------------

 -------------------
 H2O.r1.45theta130.0
 -------------------
 Symbolic Z-matrix:
 Charge =  0 Multiplicity = 1

                         Standard orientation:
 ---------------------------------------------------------------------
 Center     Atomic      Atomic             Coordinates (Angstroms)
 Number     Number       Type             X           Y           Z
 ---------------------------------------------------------------------
      1          8           0        0.000000    0.000000    0.122559
      2          1           0        0.000000    1.314146   -0.490237
      3          1           0        0.000000   -1.314146   -0.490237
 ---------------------------------------------------------------------

 SCF Done:  E(RHF) =  -75.7825113542     A.U. after   11 cycles

 The electronic state is 1-A1.
 Alpha  occ. eigenvalues --  -20.60722  -1.19657  -0.52523  -0.47678  -0.45469
 Alpha virt. eigenvalues --    0.04674   0.16468   0.91053   0.95300   1.13362
 Alpha virt. eigenvalues --    1.16185   1.36244   1.37347   1.48528   1.58622
 Alpha virt. eigenvalues --    1.61705   1.66460   1.94096   1.94508   3.24019

 Mulliken charges:
               1
     1  O   -0.572985
     2  H    0.286492
     3  H    0.286492
 Sum of Mulliken charges =   0.00000

 Dipole moment (field-independent basis, Debye):
    X=              0.0000    Y=              0.0000    Z=             -1.7438  Tot=              1.7438
 Quadrupole moment (field-independent basis, Debye-Ang):
   XX=             -8.0878   YY=             -1.0602   ZZ=             -7.0010
   XY=              0.0000   XZ=              0.0000   YZ=              0.0000

 Normal termination of Gaussian 09 at Mon Sep 29 16:35:48 2014.
