 Gaussian 09, Revision D.01,
 Gaussian 09:  ES64L-G09RevD.01 24-Apr-2013

 -----------------
 #RHF 6-31G(d',p')
 -----------------

 -------------------
 H2O.r0.95theta118.0
 -------------------
 Symbolic Z-matrix:
 Charge =  0 Multiplicity = 1

                         Standard orientation:
 ---------------------------------------------------------------------
 Center     Atomic      Atomic             Coordinates (Angstroms)
 Number     Number       Type             X           Y           Z
 ---------------------------------------------------------------------
      1          8           0        0.000000    0.000000    0.097857
      2          1           0        0.000000    0.814309   -0.391429
      3          1           0        0.000000   -0.814309   -0.391429
 ---------------------------------------------------------------------

 SCF Done:  E(RHF) =  -76.0201384427     A.U. after   10 cycles

 The electronic state is 1-A1.
 Alpha  occ. eigenvalues --  -20.54696  -1.33277  -0.73076  -0.54263  -0.49173
 Alpha virt. eigenvalues --    0.21521   0.30687   0.97999   1.05827   1.16111
 Alpha virt. eigenvalues --    1.17293   1.24962   1.44463   1.48025   1.79024
 Alpha virt. eigenvalues --    1.80443   1.92010   2.51978   2.57373   3.43294

 Mulliken charges:
               1
     1  O   -0.561190
     2  H    0.280595
     3  H    0.280595
 Sum of Mulliken charges =   0.00000

 Dipole moment (field-independent basis, Debye):
    X=              0.0000    Y=              0.0000    Z=             -1.9307  Tot=              1.9307
 Quadrupole moment (field-independent basis, Debye-Ang):
   XX=             -7.1199   YY=             -3.5648   ZZ=             -6.3220
   XY=              0.0000   XZ=              0.0000   YZ=              0.0000

 Normal termination of Gaussian 09 at Mon Sep 29 16:25:31 2014.
