 Gaussian 09, Revision D.01,
 Gaussian 09:  ES64L-G09RevD.01 24-Apr-2013

 -----------------
 #RHF 6-31G(d',p')
 -----------------

 -------------------
 H2O.r1.90theta109.0
 -------------------
 Symbolic Z-matrix:
 Charge =  0 Multiplicity = 1

                         Standard orientation:
 ---------------------------------------------------------------------
 Center     Atomic      Atomic             Coordinates (Angstroms)
 Number     Number       Type             X           Y           Z
 ---------------------------------------------------------------------
      1          8           0        0.000000    0.000000    0.220667
      2          1           0        0.000000    1.546819   -0.882668
      3          1           0        0.000000   -1.546819   -0.882668
 ---------------------------------------------------------------------

 SCF Done:  E(RHF) =  -75.5970752399     A.U. after   13 cycles

 The electronic state is 1-A1.
 Alpha  occ. eigenvalues --  -20.66564  -1.19482  -0.50555  -0.43011  -0.42488
 Alpha virt. eigenvalues --   -0.02560   0.02148   0.94859   0.99920   1.13382
 Alpha virt. eigenvalues --    1.14786   1.18890   1.19175   1.49940   1.50034
 Alpha virt. eigenvalues --    1.52282   1.55033   1.81415   1.94200   3.18966

 Mulliken charges:
               1
     1  O   -0.365323
     2  H    0.182661
     3  H    0.182661
 Sum of Mulliken charges =   0.00000

 Dipole moment (field-independent basis, Debye):
    X=              0.0000    Y=              0.0000    Z=             -2.1516  Tot=              2.1516
 Quadrupole moment (field-independent basis, Debye-Ang):
   XX=             -8.4837   YY=             -1.6375   ZZ=             -5.8748
   XY=              0.0000   XZ=              0.0000   YZ=              0.0000

 Normal termination of Gaussian 09 at Mon Sep 29 16:44:40 2014.
