 Gaussian 09, Revision D.01,
 Gaussian 09:  ES64L-G09RevD.01 24-Apr-2013

 -----------------
 #RHF 6-31G(d',p')
 -----------------

 -------------------
 H2O.r0.90theta129.0
 -------------------
 Symbolic Z-matrix:
 Charge =  0 Multiplicity = 1

                         Standard orientation:
 ---------------------------------------------------------------------
 Center     Atomic      Atomic             Coordinates (Angstroms)
 Number     Number       Type             X           Y           Z
 ---------------------------------------------------------------------
      1          8           0        0.000000    0.000000    0.077492
      2          1           0        0.000000    0.812327   -0.309968
      3          1           0        0.000000   -0.812327   -0.309968
 ---------------------------------------------------------------------

 SCF Done:  E(RHF) =  -76.0090742818     A.U. after   10 cycles

 The electronic state is 1-A1.
 Alpha  occ. eigenvalues --  -20.53128  -1.35050  -0.77793  -0.52997  -0.49168
 Alpha virt. eigenvalues --    0.22701   0.31506   0.96480   1.13447   1.15914
 Alpha virt. eigenvalues --    1.17268   1.25660   1.46172   1.46703   1.86317
 Alpha virt. eigenvalues --    1.87140   1.92489   2.62015   2.77605   3.39855

 Mulliken charges:
               1
     1  O   -0.569018
     2  H    0.284509
     3  H    0.284509
 Sum of Mulliken charges =   0.00000

 Dipole moment (field-independent basis, Debye):
    X=              0.0000    Y=              0.0000    Z=             -1.6568  Tot=              1.6568
 Quadrupole moment (field-independent basis, Debye-Ang):
   XX=             -7.0056   YY=             -3.3089   ZZ=             -6.4939
   XY=              0.0000   XZ=              0.0000   YZ=              0.0000

 Normal termination of Gaussian 09 at Mon Sep 29 16:24:39 2014.
