 Gaussian 09, Revision D.01,
 Gaussian 09:  ES64L-G09RevD.01 24-Apr-2013

 -----------------
 #RHF 6-31G(d',p')
 -----------------

 -------------------
 H2O.r1.65theta116.0
 -------------------
 Symbolic Z-matrix:
 Charge =  0 Multiplicity = 1

                         Standard orientation:
 ---------------------------------------------------------------------
 Center     Atomic      Atomic             Coordinates (Angstroms)
 Number     Number       Type             X           Y           Z
 ---------------------------------------------------------------------
      1          8           0        0.000000    0.000000    0.174873
      2          1           0        0.000000    1.399279   -0.699493
      3          1           0        0.000000   -1.399279   -0.699493
 ---------------------------------------------------------------------

 SCF Done:  E(RHF) =  -75.6986728864     A.U. after   12 cycles

 The electronic state is 1-A1.
 Alpha  occ. eigenvalues --  -20.64401  -1.19635  -0.49476  -0.47519  -0.44773
 Alpha virt. eigenvalues --    0.01547   0.08860   0.92653   0.96994   1.12378
 Alpha virt. eigenvalues --    1.17468   1.26069   1.30425   1.50055   1.51530
 Alpha virt. eigenvalues --    1.56190   1.60878   1.85594   2.00825   3.21055

 Mulliken charges:
               1
     1  O   -0.455340
     2  H    0.227670
     3  H    0.227670
 Sum of Mulliken charges =   0.00000

 Dipole moment (field-independent basis, Debye):
    X=              0.0000    Y=              0.0000    Z=             -2.0257  Tot=              2.0257
 Quadrupole moment (field-independent basis, Debye-Ang):
   XX=             -8.3081   YY=             -1.6589   ZZ=             -6.3913
   XY=              0.0000   XZ=              0.0000   YZ=              0.0000

 Normal termination of Gaussian 09 at Mon Sep 29 16:39:42 2014.
