 Gaussian 09, Revision D.01,
 Gaussian 09:  ES64L-G09RevD.01 24-Apr-2013

 -----------------
 #RHF 6-31G(d',p')
 -----------------

 -------------------
 H2O.r1.75theta155.0
 -------------------
 Symbolic Z-matrix:
 Charge =  0 Multiplicity = 1

                         Standard orientation:
 ---------------------------------------------------------------------
 Center     Atomic      Atomic             Coordinates (Angstroms)
 Number     Number       Type             X           Y           Z
 ---------------------------------------------------------------------
      1          8           0        0.000000    0.000000    0.075754
      2          1           0        0.000000    1.708518   -0.303015
      3          1           0        0.000000   -1.708518   -0.303015
 ---------------------------------------------------------------------

 SCF Done:  E(RHF) =  -75.6146535168     A.U. after   13 cycles

 The electronic state is 1-A1.
 Alpha  occ. eigenvalues --  -20.59823  -1.15921  -0.46125  -0.43744  -0.41512
 Alpha virt. eigenvalues --   -0.06096   0.11255   0.93492   0.96272   1.15128
 Alpha virt. eigenvalues --    1.17103   1.20428   1.30250   1.48575   1.48597
 Alpha virt. eigenvalues --    1.56569   1.57587   1.79936   2.09983   3.23588

 Mulliken charges:
               1
     1  O   -0.532365
     2  H    0.266182
     3  H    0.266182
 Sum of Mulliken charges =   0.00000

 Dipole moment (field-independent basis, Debye):
    X=              0.0000    Y=              0.0000    Z=             -0.9224  Tot=              0.9224
 Quadrupole moment (field-independent basis, Debye-Ang):
   XX=             -8.3886   YY=              2.1201   ZZ=             -7.9136
   XY=              0.0000   XZ=              0.0000   YZ=              0.0000

 Normal termination of Gaussian 09 at Mon Sep 29 16:42:09 2014.
