 Gaussian 09, Revision D.01,
 Gaussian 09:  ES64L-G09RevD.01 24-Apr-2013

 -----------------
 #RHF 6-31G(d',p')
 -----------------

 -------------------
 H2O.r1.65theta138.0
 -------------------
 Symbolic Z-matrix:
 Charge =  0 Multiplicity = 1

                         Standard orientation:
 ---------------------------------------------------------------------
 Center     Atomic      Atomic             Coordinates (Angstroms)
 Number     Number       Type             X           Y           Z
 ---------------------------------------------------------------------
      1          8           0        0.000000    0.000000    0.118261
      2          1           0        0.000000    1.540408   -0.473046
      3          1           0        0.000000   -1.540408   -0.473046
 ---------------------------------------------------------------------

 SCF Done:  E(RHF) =  -75.6773347626     A.U. after   13 cycles

 The electronic state is 1-A1.
 Alpha  occ. eigenvalues --  -20.62013  -1.18058  -0.47815  -0.47221  -0.42945
 Alpha virt. eigenvalues --   -0.01416   0.11400   0.94279   0.94453   1.13455
 Alpha virt. eigenvalues --    1.16855   1.25115   1.34578   1.49361   1.49833
 Alpha virt. eigenvalues --    1.57606   1.60723   1.87708   2.00539   3.22848

 Mulliken charges:
               1
     1  O   -0.510861
     2  H    0.255430
     3  H    0.255430
 Sum of Mulliken charges =   0.00000

 Dipole moment (field-independent basis, Debye):
    X=              0.0000    Y=              0.0000    Z=             -1.4612  Tot=              1.4612
 Quadrupole moment (field-independent basis, Debye-Ang):
   XX=             -8.3082   YY=              0.2308   ZZ=             -7.3310
   XY=              0.0000   XZ=              0.0000   YZ=              0.0000

 Normal termination of Gaussian 09 at Mon Sep 29 16:39:58 2014.
