 Gaussian 09, Revision D.01,
 Gaussian 09:  ES64L-G09RevD.01 24-Apr-2013

 -----------------
 #RHF 6-31G(d',p')
 -----------------

 -------------------
 H2O.r1.85theta132.0
 -------------------
 Symbolic Z-matrix:
 Charge =  0 Multiplicity = 1

                         Standard orientation:
 ---------------------------------------------------------------------
 Center     Atomic      Atomic             Coordinates (Angstroms)
 Number     Number       Type             X           Y           Z
 ---------------------------------------------------------------------
      1          8           0        0.000000    0.000000    0.150493
      2          1           0        0.000000    1.690059   -0.601970
      3          1           0        0.000000   -1.690059   -0.601970
 ---------------------------------------------------------------------

 SCF Done:  E(RHF) =  -75.6021246023     A.U. after   13 cycles

 The electronic state is 1-A1.
 Alpha  occ. eigenvalues --  -20.64240  -1.18208  -0.49027  -0.43044  -0.42348
 Alpha virt. eigenvalues --   -0.04658   0.06135   0.96314   0.96782   1.14017
 Alpha virt. eigenvalues --    1.16288   1.18137   1.22726   1.49479   1.49539
 Alpha virt. eigenvalues --    1.53722   1.55791   1.86468   1.93665   3.20876

 Mulliken charges:
               1
     1  O   -0.418169
     2  H    0.209084
     3  H    0.209084
 Sum of Mulliken charges =   0.00000

 Dipole moment (field-independent basis, Debye):
    X=              0.0000    Y=              0.0000    Z=             -1.5911  Tot=              1.5911
 Quadrupole moment (field-independent basis, Debye-Ang):
   XX=             -8.4513   YY=              0.3829   ZZ=             -7.1019
   XY=              0.0000   XZ=              0.0000   YZ=              0.0000

 Normal termination of Gaussian 09 at Mon Sep 29 16:43:54 2014.
