 Gaussian 09, Revision D.01,
 Gaussian 09:  ES64L-G09RevD.01 24-Apr-2013

 -----------------
 #RHF 6-31G(d',p')
 -----------------

 -------------------
 H2O.r0.80theta119.0
 -------------------
 Symbolic Z-matrix:
 Charge =  0 Multiplicity = 1

                         Standard orientation:
 ---------------------------------------------------------------------
 Center     Atomic      Atomic             Coordinates (Angstroms)
 Number     Number       Type             X           Y           Z
 ---------------------------------------------------------------------
      1          8           0        0.000000    0.000000    0.081206
      2          1           0        0.000000    0.689303   -0.324825
      3          1           0        0.000000   -0.689303   -0.324825
 ---------------------------------------------------------------------

 SCF Done:  E(RHF) =  -75.9600824024     A.U. after    9 cycles

 The electronic state is 1-A1.
 Alpha  occ. eigenvalues --  -20.51880  -1.42177  -0.83239  -0.56697  -0.50717
 Alpha virt. eigenvalues --    0.24668   0.33170   1.07420   1.13440   1.14996
 Alpha virt. eigenvalues --    1.15149   1.29785   1.46900   1.51845   1.85461
 Alpha virt. eigenvalues --    1.88438   2.08855   2.93244   3.01142   3.53807

 Mulliken charges:
               1
     1  O   -0.467984
     2  H    0.233992
     3  H    0.233992
 Sum of Mulliken charges =   0.00000

 Dipole moment (field-independent basis, Debye):
    X=              0.0000    Y=              0.0000    Z=             -1.7578  Tot=              1.7578
 Quadrupole moment (field-independent basis, Debye-Ang):
   XX=             -6.7365   YY=             -3.9791   ZZ=             -6.1379
   XY=              0.0000   XZ=              0.0000   YZ=              0.0000

 Normal termination of Gaussian 09 at Mon Sep 29 16:22:19 2014.
