 Gaussian 09, Revision D.01,
 Gaussian 09:  ES64L-G09RevD.01 24-Apr-2013

 -----------------
 #RHF 6-31G(d',p')
 -----------------

 -------------------
 H2O.r1.50theta139.0
 -------------------
 Symbolic Z-matrix:
 Charge =  0 Multiplicity = 1

                         Standard orientation:
 ---------------------------------------------------------------------
 Center     Atomic      Atomic             Coordinates (Angstroms)
 Number     Number       Type             X           Y           Z
 ---------------------------------------------------------------------
      1          8           0        0.000000    0.000000    0.105062
      2          1           0        0.000000    1.405008   -0.420249
      3          1           0        0.000000   -1.405008   -0.420249
 ---------------------------------------------------------------------

 SCF Done:  E(RHF) =  -75.7455548915     A.U. after   12 cycles

 The electronic state is 1-A1.
 Alpha  occ. eigenvalues --  -20.60109  -1.18487  -0.50986  -0.47002  -0.43920
 Alpha virt. eigenvalues --    0.01993   0.15884   0.91956   0.94143   1.13690
 Alpha virt. eigenvalues --    1.16241   1.34324   1.39726   1.48548   1.54471
 Alpha virt. eigenvalues --    1.60820   1.65028   1.88140   2.00916   3.24131

 Mulliken charges:
               1
     1  O   -0.585484
     2  H    0.292742
     3  H    0.292742
 Sum of Mulliken charges =   0.00000

 Dipole moment (field-independent basis, Debye):
    X=              0.0000    Y=              0.0000    Z=             -1.4878  Tot=              1.4878
 Quadrupole moment (field-independent basis, Debye-Ang):
   XX=             -8.1536   YY=             -0.1626   ZZ=             -7.3276
   XY=              0.0000   XZ=              0.0000   YZ=              0.0000

 Normal termination of Gaussian 09 at Mon Sep 29 16:36:56 2014.
