 Gaussian 09, Revision D.01,
 Gaussian 09:  ES64L-G09RevD.01 24-Apr-2013

 -----------------
 #RHF 6-31G(d',p')
 -----------------

 -------------------
 H2O.r1.10theta154.0
 -------------------
 Symbolic Z-matrix:
 Charge =  0 Multiplicity = 1

                         Standard orientation:
 ---------------------------------------------------------------------
 Center     Atomic      Atomic             Coordinates (Angstroms)
 Number     Number       Type             X           Y           Z
 ---------------------------------------------------------------------
      1          8           0        0.000000    0.000000    0.049489
      2          1           0        0.000000    1.071807   -0.197957
      3          1           0        0.000000   -1.071807   -0.197957
 ---------------------------------------------------------------------

 SCF Done:  E(RHF) =  -75.9334609625     A.U. after   10 cycles

 The electronic state is 1-A1.
 Alpha  occ. eigenvalues --  -20.52976  -1.23909  -0.66692  -0.45869  -0.45467
 Alpha virt. eigenvalues --    0.13913   0.28181   0.86220   1.03383   1.18521
 Alpha virt. eigenvalues --    1.18769   1.35228   1.43586   1.46315   1.76693
 Alpha virt. eigenvalues --    1.79497   1.80172   2.13486   2.46315   3.27260

 Mulliken charges:
               1
     1  O   -0.759826
     2  H    0.379913
     3  H    0.379913
 Sum of Mulliken charges =   0.00000

 Dipole moment (field-independent basis, Debye):
    X=              0.0000    Y=              0.0000    Z=             -1.0716  Tot=              1.0716
 Quadrupole moment (field-independent basis, Debye-Ang):
   XX=             -7.4973   YY=             -1.0900   ZZ=             -7.2936
   XY=              0.0000   XZ=              0.0000   YZ=              0.0000

 Normal termination of Gaussian 09 at Mon Sep 29 16:28:55 2014.
