 Gaussian 09, Revision D.01,
 Gaussian 09:  ES64L-G09RevD.01 24-Apr-2013

 -----------------
 #RHF 6-31G(d',p')
 -----------------

 -------------------
 H2O.r1.50theta146.0
 -------------------
 Symbolic Z-matrix:
 Charge =  0 Multiplicity = 1

                         Standard orientation:
 ---------------------------------------------------------------------
 Center     Atomic      Atomic             Coordinates (Angstroms)
 Number     Number       Type             X           Y           Z
 ---------------------------------------------------------------------
      1          8           0        0.000000    0.000000    0.087712
      2          1           0        0.000000    1.434457   -0.350846
      3          1           0        0.000000   -1.434457   -0.350846
 ---------------------------------------------------------------------

 SCF Done:  E(RHF) =  -75.7353168878     A.U. after   12 cycles

 The electronic state is 1-A1.
 Alpha  occ. eigenvalues --  -20.58916  -1.17695  -0.50711  -0.46162  -0.43113
 Alpha virt. eigenvalues --    0.00907   0.16693   0.92073   0.93400   1.14234
 Alpha virt. eigenvalues --    1.16276   1.34357   1.41759   1.48201   1.53823
 Alpha virt. eigenvalues --    1.61454   1.64969   1.84281   2.07095   3.24827

 Mulliken charges:
               1
     1  O   -0.617820
     2  H    0.308910
     3  H    0.308910
 Sum of Mulliken charges =   0.00000

 Dipole moment (field-independent basis, Debye):
    X=              0.0000    Y=              0.0000    Z=             -1.2863  Tot=              1.2863
 Quadrupole moment (field-independent basis, Debye-Ang):
   XX=             -8.1560   YY=              0.4331   ZZ=             -7.5436
   XY=              0.0000   XZ=              0.0000   YZ=              0.0000

 Normal termination of Gaussian 09 at Mon Sep 29 16:37:00 2014.
