 Gaussian 09, Revision D.01,
 Gaussian 09:  ES64L-G09RevD.01 24-Apr-2013

 -----------------
 #RHF 6-31G(d',p')
 -----------------

 ------------------
 H2O.r0.80theta88.0
 ------------------
 Symbolic Z-matrix:
 Charge =  0 Multiplicity = 1

                         Standard orientation:
 ---------------------------------------------------------------------
 Center     Atomic      Atomic             Coordinates (Angstroms)
 Number     Number       Type             X           Y           Z
 ---------------------------------------------------------------------
      1          8           0        0.000000    0.000000    0.115094
      2          1           0        0.000000    0.555727   -0.460377
      3          1           0        0.000000   -0.555727   -0.460377
 ---------------------------------------------------------------------

 SCF Done:  E(RHF) =  -75.9451327418     A.U. after    9 cycles

 The electronic state is 1-A1.
 Alpha  occ. eigenvalues --  -20.53046  -1.46052  -0.75034  -0.63369  -0.51601
 Alpha virt. eigenvalues --    0.23314   0.34291   1.00479   1.10193   1.14336
 Alpha virt. eigenvalues --    1.31081   1.31951   1.37262   1.64603   1.66326
 Alpha virt. eigenvalues --    1.67699   2.30091   2.85264   3.05114   3.65919

 Mulliken charges:
               1
     1  O   -0.425727
     2  H    0.212864
     3  H    0.212864
 Sum of Mulliken charges =   0.00000

 Dipole moment (field-independent basis, Debye):
    X=              0.0000    Y=              0.0000    Z=             -2.2201  Tot=              2.2201
 Quadrupole moment (field-independent basis, Debye-Ang):
   XX=             -6.7233   YY=             -4.9640   ZZ=             -5.5106
   XY=              0.0000   XZ=              0.0000   YZ=              0.0000

 Normal termination of Gaussian 09 at Mon Sep 29 16:22:00 2014.
