 Gaussian 09, Revision D.01,
 Gaussian 09:  ES64L-G09RevD.01 24-Apr-2013

 -----------------
 #RHF 6-31G(d',p')
 -----------------

 ------------------
 H2O.r1.05theta93.0
 ------------------
 Symbolic Z-matrix:
 Charge =  0 Multiplicity = 1

                         Standard orientation:
 ---------------------------------------------------------------------
 Center     Atomic      Atomic             Coordinates (Angstroms)
 Number     Number       Type             X           Y           Z
 ---------------------------------------------------------------------
      1          8           0        0.000000    0.000000    0.144554
      2          1           0        0.000000    0.761643   -0.578218
      3          1           0        0.000000   -0.761643   -0.578218
 ---------------------------------------------------------------------

 SCF Done:  E(RHF) =  -76.0015769505     A.U. after   10 cycles

 The electronic state is 1-A1.
 Alpha  occ. eigenvalues --  -20.58034  -1.30722  -0.63869  -0.57515  -0.49722
 Alpha virt. eigenvalues --    0.19059   0.27428   0.95416   0.99311   1.15991
 Alpha virt. eigenvalues --    1.18378   1.25966   1.36885   1.53479   1.64753
 Alpha virt. eigenvalues --    1.66813   1.93801   2.31246   2.34272   3.42910

 Mulliken charges:
               1
     1  O   -0.521240
     2  H    0.260620
     3  H    0.260620
 Sum of Mulliken charges =   0.00000

 Dipole moment (field-independent basis, Debye):
    X=              0.0000    Y=              0.0000    Z=             -2.4171  Tot=              2.4171
 Quadrupole moment (field-independent basis, Debye-Ang):
   XX=             -7.3417   YY=             -4.5656   ZZ=             -5.6791
   XY=              0.0000   XZ=              0.0000   YZ=              0.0000

 Normal termination of Gaussian 09 at Mon Sep 29 16:27:15 2014.
