 Gaussian 09, Revision D.01,
 Gaussian 09:  ES64L-G09RevD.01 24-Apr-2013

 -----------------
 #RHF 6-31G(d',p')
 -----------------

 -------------------
 H2O.r1.65theta100.0
 -------------------
 Symbolic Z-matrix:
 Charge =  0 Multiplicity = 1

                         Standard orientation:
 ---------------------------------------------------------------------
 Center     Atomic      Atomic             Coordinates (Angstroms)
 Number     Number       Type             X           Y           Z
 ---------------------------------------------------------------------
      1          8           0        0.000000    0.000000    0.212120
      2          1           0        0.000000    1.263973   -0.848480
      3          1           0        0.000000   -1.263973   -0.848480
 ---------------------------------------------------------------------

 SCF Done:  E(RHF) =  -75.7061722126     A.U. after   12 cycles

 The electronic state is 1-A1.
 Alpha  occ. eigenvalues --  -20.65473  -1.20403  -0.50255  -0.47406  -0.45888
 Alpha virt. eigenvalues --    0.03313   0.06980   0.91608   0.98223   1.11827
 Alpha virt. eigenvalues --    1.17777   1.26924   1.27321   1.50356   1.54492
 Alpha virt. eigenvalues --    1.55248   1.60650   1.77532   2.09535   3.20121

 Mulliken charges:
               1
     1  O   -0.429331
     2  H    0.214666
     3  H    0.214666
 Sum of Mulliken charges =   0.00000

 Dipole moment (field-independent basis, Debye):
    X=              0.0000    Y=              0.0000    Z=             -2.3614  Tot=              2.3614
 Quadrupole moment (field-independent basis, Debye-Ang):
   XX=             -8.3138   YY=             -3.0560   ZZ=             -5.5893
   XY=              0.0000   XZ=              0.0000   YZ=              0.0000

 Normal termination of Gaussian 09 at Mon Sep 29 16:39:32 2014.
