 Gaussian 09, Revision D.01,
 Gaussian 09:  ES64L-G09RevD.01 24-Apr-2013

 -----------------
 #RHF 6-31G(d',p')
 -----------------

 ------------------
 H2O.r1.60theta73.0
 ------------------
 Symbolic Z-matrix:
 Charge =  0 Multiplicity = 1

                         Standard orientation:
 ---------------------------------------------------------------------
 Center     Atomic      Atomic             Coordinates (Angstroms)
 Number     Number       Type             X           Y           Z
 ---------------------------------------------------------------------
      1          8           0        0.000000    0.000000    0.257234
      2          1           0        0.000000    0.951716   -1.028937
      3          1           0        0.000000   -0.951716   -1.028937
 ---------------------------------------------------------------------

 SCF Done:  E(RHF) =  -75.7302021910     A.U. after   12 cycles

 The electronic state is 1-A1.
 Alpha  occ. eigenvalues --  -20.65594  -1.21501  -0.50877  -0.48591  -0.48413
 Alpha virt. eigenvalues --    0.05758   0.06359   0.92492   0.96189   1.10727
 Alpha virt. eigenvalues --    1.17763   1.23463   1.30063   1.47353   1.52427
 Alpha virt. eigenvalues --    1.58246   1.66736   1.79919   2.09352   3.20071

 Mulliken charges:
               1
     1  O   -0.403711
     2  H    0.201856
     3  H    0.201856
 Sum of Mulliken charges =   0.00000

 Dipole moment (field-independent basis, Debye):
    X=              0.0000    Y=              0.0000    Z=             -2.6649  Tot=              2.6649
 Quadrupole moment (field-independent basis, Debye-Ang):
   XX=             -8.2918   YY=             -5.2858   ZZ=             -4.4294
   XY=              0.0000   XZ=              0.0000   YZ=              0.0000

 Normal termination of Gaussian 09 at Mon Sep 29 16:38:12 2014.
