 Gaussian 09, Revision D.01,
 Gaussian 09:  ES64L-G09RevD.01 24-Apr-2013

 -----------------
 #RHF 6-31G(d',p')
 -----------------

 ------------------
 H2O.r0.80theta79.0
 ------------------
 Symbolic Z-matrix:
 Charge =  0 Multiplicity = 1

                         Standard orientation:
 ---------------------------------------------------------------------
 Center     Atomic      Atomic             Coordinates (Angstroms)
 Number     Number       Type             X           Y           Z
 ---------------------------------------------------------------------
      1          8           0        0.000000    0.000000    0.123460
      2          1           0        0.000000    0.508863   -0.493840
      3          1           0        0.000000   -0.508863   -0.493840
 ---------------------------------------------------------------------

 SCF Done:  E(RHF) =  -75.9277630050     A.U. after    9 cycles

 The electronic state is 1-A1.
 Alpha  occ. eigenvalues --  -20.53350  -1.47643  -0.72103  -0.65421  -0.51880
 Alpha virt. eigenvalues --    0.22751   0.34589   0.98284   1.10105   1.14201
 Alpha virt. eigenvalues --    1.26745   1.31730   1.41341   1.59855   1.69014
 Alpha virt. eigenvalues --    1.69590   2.36155   2.85804   3.08694   3.62482

 Mulliken charges:
               1
     1  O   -0.420593
     2  H    0.210296
     3  H    0.210296
 Sum of Mulliken charges =   0.00000

 Dipole moment (field-independent basis, Debye):
    X=              0.0000    Y=              0.0000    Z=             -2.3306  Tot=              2.3306
 Quadrupole moment (field-independent basis, Debye-Ang):
   XX=             -6.7242   YY=             -5.2615   ZZ=             -5.3218
   XY=              0.0000   XZ=              0.0000   YZ=              0.0000

 Normal termination of Gaussian 09 at Mon Sep 29 16:21:54 2014.
