 Gaussian 09, Revision D.01,
 Gaussian 09:  ES64L-G09RevD.01 24-Apr-2013

 -----------------
 #RHF 6-31G(d',p')
 -----------------

 -------------------
 H2O.r0.85theta148.0
 -------------------
 Symbolic Z-matrix:
 Charge =  0 Multiplicity = 1

                         Standard orientation:
 ---------------------------------------------------------------------
 Center     Atomic      Atomic             Coordinates (Angstroms)
 Number     Number       Type             X           Y           Z
 ---------------------------------------------------------------------
      1          8           0        0.000000    0.000000    0.046858
      2          1           0        0.000000    0.817072   -0.187433
      3          1           0        0.000000   -0.817072   -0.187433
 ---------------------------------------------------------------------

 SCF Done:  E(RHF) =  -75.9734377201     A.U. after   10 cycles

 The electronic state is 1-A1.
 Alpha  occ. eigenvalues --  -20.51320  -1.36600  -0.83511  -0.50796  -0.49121
 Alpha virt. eigenvalues --    0.23881   0.31785   0.92208   1.16198   1.16909
 Alpha virt. eigenvalues --    1.23294   1.30962   1.44858   1.48523   1.91258
 Alpha virt. eigenvalues --    1.97152   1.97363   2.70199   3.08217   3.30388

 Mulliken charges:
               1
     1  O   -0.586025
     2  H    0.293013
     3  H    0.293013
 Sum of Mulliken charges =   0.00000

 Dipole moment (field-independent basis, Debye):
    X=              0.0000    Y=              0.0000    Z=             -1.1186  Tot=              1.1186
 Quadrupole moment (field-independent basis, Debye-Ang):
   XX=             -6.8950   YY=             -2.9774   ZZ=             -6.7026
   XY=              0.0000   XZ=              0.0000   YZ=              0.0000

 Normal termination of Gaussian 09 at Mon Sep 29 16:23:50 2014.
