 Gaussian 09, Revision D.01,
 Gaussian 09:  ES64L-G09RevD.01 24-Apr-2013

 -----------------
 #RHF 6-31G(d',p')
 -----------------

 ------------------
 H2O.r0.90theta96.0
 ------------------
 Symbolic Z-matrix:
 Charge =  0 Multiplicity = 1

                         Standard orientation:
 ---------------------------------------------------------------------
 Center     Atomic      Atomic             Coordinates (Angstroms)
 Number     Number       Type             X           Y           Z
 ---------------------------------------------------------------------
      1          8           0        0.000000    0.000000    0.120444
      2          1           0        0.000000    0.668830   -0.481774
      3          1           0        0.000000   -0.668830   -0.481774
 ---------------------------------------------------------------------

 SCF Done:  E(RHF) =  -76.0168264805     A.U. after   10 cycles

 The electronic state is 1-A1.
 Alpha  occ. eigenvalues --  -20.54942  -1.37996  -0.71670  -0.59716  -0.50419
 Alpha virt. eigenvalues --    0.22215   0.31964   0.99610   1.06921   1.16423
 Alpha virt. eigenvalues --    1.21034   1.27149   1.38365   1.56594   1.67413
 Alpha virt. eigenvalues --    1.67931   2.10504   2.62025   2.69158   3.57940

 Mulliken charges:
               1
     1  O   -0.480902
     2  H    0.240451
     3  H    0.240451
 Sum of Mulliken charges =   0.00000

 Dipole moment (field-independent basis, Debye):
    X=              0.0000    Y=              0.0000    Z=             -2.2394  Tot=              2.2394
 Quadrupole moment (field-independent basis, Debye-Ang):
   XX=             -6.9793   YY=             -4.6022   ZZ=             -5.7425
   XY=              0.0000   XZ=              0.0000   YZ=              0.0000

 Normal termination of Gaussian 09 at Mon Sep 29 16:24:17 2014.
