 Gaussian 09, Revision D.01,
 Gaussian 09:  ES64L-G09RevD.01 24-Apr-2013

 -----------------
 #RHF 6-31G(d',p')
 -----------------

 ------------------
 H2O.r1.45theta99.0
 ------------------
 Symbolic Z-matrix:
 Charge =  0 Multiplicity = 1

                         Standard orientation:
 ---------------------------------------------------------------------
 Center     Atomic      Atomic             Coordinates (Angstroms)
 Number     Number       Type             X           Y           Z
 ---------------------------------------------------------------------
      1          8           0        0.000000    0.000000    0.188340
      2          1           0        0.000000    1.102589   -0.753360
      3          1           0        0.000000   -1.102589   -0.753360
 ---------------------------------------------------------------------

 SCF Done:  E(RHF) =  -75.8052044229     A.U. after   11 cycles

 The electronic state is 1-A1.
 Alpha  occ. eigenvalues --  -20.63538  -1.21652  -0.51585  -0.49693  -0.49207
 Alpha virt. eigenvalues --    0.08159   0.13132   0.90538   0.96180   1.11888
 Alpha virt. eigenvalues --    1.17206   1.28585   1.39052   1.50009   1.60318
 Alpha virt. eigenvalues --    1.65100   1.65618   1.77349   2.09495   3.23417

 Mulliken charges:
               1
     1  O   -0.495969
     2  H    0.247984
     3  H    0.247984
 Sum of Mulliken charges =   0.00000

 Dipole moment (field-independent basis, Debye):
    X=              0.0000    Y=              0.0000    Z=             -2.4119  Tot=              2.4119
 Quadrupole moment (field-independent basis, Debye-Ang):
   XX=             -8.0889   YY=             -3.5304   ZZ=             -5.7057
   XY=              0.0000   XZ=              0.0000   YZ=              0.0000

 Normal termination of Gaussian 09 at Mon Sep 29 16:35:26 2014.
