 Gaussian 09, Revision D.01,
 Gaussian 09:  ES64L-G09RevD.01 24-Apr-2013

 -----------------
 #RHF 6-31G(d',p')
 -----------------

 -------------------
 H2O.r1.90theta114.0
 -------------------
 Symbolic Z-matrix:
 Charge =  0 Multiplicity = 1

                         Standard orientation:
 ---------------------------------------------------------------------
 Center     Atomic      Atomic             Coordinates (Angstroms)
 Number     Number       Type             X           Y           Z
 ---------------------------------------------------------------------
      1          8           0        0.000000    0.000000    0.206963
      2          1           0        0.000000    1.593474   -0.827851
      3          1           0        0.000000   -1.593474   -0.827851
 ---------------------------------------------------------------------

 SCF Done:  E(RHF) =  -75.5949991458     A.U. after   13 cycles

 The electronic state is 1-A1.
 Alpha  occ. eigenvalues --  -20.66194  -1.19237  -0.50302  -0.42753  -0.42526
 Alpha virt. eigenvalues --   -0.03251   0.02889   0.95292   0.99315   1.13557
 Alpha virt. eigenvalues --    1.14833   1.18755   1.19493   1.49863   1.49873
 Alpha virt. eigenvalues --    1.52422   1.54999   1.83585   1.92068   3.19393

 Mulliken charges:
               1
     1  O   -0.372219
     2  H    0.186109
     3  H    0.186109
 Sum of Mulliken charges =   0.00000

 Dipole moment (field-independent basis, Debye):
    X=              0.0000    Y=              0.0000    Z=             -2.0419  Tot=              2.0419
 Quadrupole moment (field-independent basis, Debye-Ang):
   XX=             -8.4816   YY=             -1.1449   ZZ=             -6.1654
   XY=              0.0000   XZ=              0.0000   YZ=              0.0000

 Normal termination of Gaussian 09 at Mon Sep 29 16:44:43 2014.
