 Gaussian 09, Revision D.01,
 Gaussian 09:  ES64L-G09RevD.01 24-Apr-2013

 -----------------
 #RHF 6-31G(d',p')
 -----------------

 -------------------
 H2O.r1.45theta150.0
 -------------------
 Symbolic Z-matrix:
 Charge =  0 Multiplicity = 1

                         Standard orientation:
 ---------------------------------------------------------------------
 Center     Atomic      Atomic             Coordinates (Angstroms)
 Number     Number       Type             X           Y           Z
 ---------------------------------------------------------------------
      1          8           0        0.000000    0.000000    0.075058
      2          1           0        0.000000    1.400592   -0.300230
      3          1           0        0.000000   -1.400592   -0.300230
 ---------------------------------------------------------------------

 SCF Done:  E(RHF) =  -75.7537241877     A.U. after   12 cycles

 The electronic state is 1-A1.
 Alpha  occ. eigenvalues --  -20.57442  -1.17464  -0.51959  -0.45364  -0.42970
 Alpha virt. eigenvalues --    0.01624   0.18689   0.91175   0.93288   1.14889
 Alpha virt. eigenvalues --    1.16385   1.37489   1.42559   1.47538   1.57084
 Alpha virt. eigenvalues --    1.63242   1.66461   1.83080   2.11079   3.25667

 Mulliken charges:
               1
     1  O   -0.665887
     2  H    0.332944
     3  H    0.332944
 Sum of Mulliken charges =   0.00000

 Dipole moment (field-independent basis, Debye):
    X=              0.0000    Y=              0.0000    Z=             -1.1849  Tot=              1.1849
 Quadrupole moment (field-independent basis, Debye-Ang):
   XX=             -8.0956   YY=              0.6034   ZZ=             -7.6236
   XY=              0.0000   XZ=              0.0000   YZ=              0.0000

 Normal termination of Gaussian 09 at Mon Sep 29 16:36:01 2014.
