 Gaussian 09, Revision D.01,
 Gaussian 09:  ES64L-G09RevD.01 24-Apr-2013

 -----------------
 #RHF 6-31G(d',p')
 -----------------

 ------------------
 H2O.r0.85theta88.0
 ------------------
 Symbolic Z-matrix:
 Charge =  0 Multiplicity = 1

                         Standard orientation:
 ---------------------------------------------------------------------
 Center     Atomic      Atomic             Coordinates (Angstroms)
 Number     Number       Type             X           Y           Z
 ---------------------------------------------------------------------
      1          8           0        0.000000    0.000000    0.122288
      2          1           0        0.000000    0.590460   -0.489151
      3          1           0        0.000000   -0.590460   -0.489151
 ---------------------------------------------------------------------

 SCF Done:  E(RHF) =  -75.9879290212     A.U. after   10 cycles

 The electronic state is 1-A1.
 Alpha  occ. eigenvalues --  -20.54169  -1.42251  -0.72265  -0.62420  -0.51100
 Alpha virt. eigenvalues --    0.22631   0.33276   0.98997   1.09476   1.15567
 Alpha virt. eigenvalues --    1.27913   1.28985   1.34887   1.62412   1.63726
 Alpha virt. eigenvalues --    1.66090   2.22728   2.73010   2.87689   3.60219

 Mulliken charges:
               1
     1  O   -0.448458
     2  H    0.224229
     3  H    0.224229
 Sum of Mulliken charges =   0.00000

 Dipole moment (field-independent basis, Debye):
    X=              0.0000    Y=              0.0000    Z=             -2.2868  Tot=              2.2868
 Quadrupole moment (field-independent basis, Debye-Ang):
   XX=             -6.8500   YY=             -4.9492   ZZ=             -5.5324
   XY=              0.0000   XZ=              0.0000   YZ=              0.0000

 Normal termination of Gaussian 09 at Mon Sep 29 16:23:08 2014.
