 Gaussian 09, Revision D.01,
 Gaussian 09:  ES64L-G09RevD.01 24-Apr-2013

 -----------------
 #RHF 6-31G(d',p')
 -----------------

 -------------------
 H2O.r1.55theta135.0
 -------------------
 Symbolic Z-matrix:
 Charge =  0 Multiplicity = 1

                         Standard orientation:
 ---------------------------------------------------------------------
 Center     Atomic      Atomic             Coordinates (Angstroms)
 Number     Number       Type             X           Y           Z
 ---------------------------------------------------------------------
      1          8           0        0.000000    0.000000    0.118632
      2          1           0        0.000000    1.432013   -0.474527
      3          1           0        0.000000   -1.432013   -0.474527
 ---------------------------------------------------------------------

 SCF Done:  E(RHF) =  -75.7267624674     A.U. after   12 cycles

 The electronic state is 1-A1.
 Alpha  occ. eigenvalues --  -20.61320  -1.18639  -0.49750  -0.47645  -0.43963
 Alpha virt. eigenvalues --    0.01329   0.13903   0.92580   0.94511   1.13270
 Alpha virt. eigenvalues --    1.16451   1.31284   1.38081   1.49070   1.52320
 Alpha virt. eigenvalues --    1.59336   1.63591   1.90009   1.97751   3.23358

 Mulliken charges:
               1
     1  O   -0.546518
     2  H    0.273259
     3  H    0.273259
 Sum of Mulliken charges =   0.00000

 Dipole moment (field-independent basis, Debye):
    X=              0.0000    Y=              0.0000    Z=             -1.5784  Tot=              1.5784
 Quadrupole moment (field-independent basis, Debye-Ang):
   XX=             -8.2095   YY=             -0.3373   ZZ=             -7.2038
   XY=              0.0000   XZ=              0.0000   YZ=              0.0000

 Normal termination of Gaussian 09 at Mon Sep 29 16:37:53 2014.
