 Gaussian 09, Revision D.01,
 Gaussian 09:  ES64L-G09RevD.01 24-Apr-2013

 -----------------
 #RHF 6-31G(d',p')
 -----------------

 ------------------
 H2O.r1.85theta97.0
 ------------------
 Symbolic Z-matrix:
 Charge =  0 Multiplicity = 1

                         Standard orientation:
 ---------------------------------------------------------------------
 Center     Atomic      Atomic             Coordinates (Angstroms)
 Number     Number       Type             X           Y           Z
 ---------------------------------------------------------------------
      1          8           0        0.000000    0.000000    0.245169
      2          1           0        0.000000    1.385568   -0.980678
      3          1           0        0.000000   -1.385568   -0.980678
 ---------------------------------------------------------------------

 SCF Done:  E(RHF) =  -75.6202606218     A.U. after   13 cycles

 The electronic state is 1-A1.
 Alpha  occ. eigenvalues --  -20.66948  -1.20037  -0.50924  -0.44532  -0.42851
 Alpha virt. eigenvalues --    0.00015   0.01337   0.93465   1.00692   1.12718
 Alpha virt. eigenvalues --    1.15959   1.19534   1.19849   1.50143   1.51202
 Alpha virt. eigenvalues --    1.52453   1.55994   1.77202   2.02012   3.18362

 Mulliken charges:
               1
     1  O   -0.362560
     2  H    0.181280
     3  H    0.181280
 Sum of Mulliken charges =   0.00000

 Dipole moment (field-independent basis, Debye):
    X=              0.0000    Y=              0.0000    Z=             -2.3750  Tot=              2.3750
 Quadrupole moment (field-independent basis, Debye-Ang):
   XX=             -8.4656   YY=             -2.9345   ZZ=             -5.2195
   XY=              0.0000   XZ=              0.0000   YZ=              0.0000

 Normal termination of Gaussian 09 at Mon Sep 29 16:43:30 2014.
