 Gaussian 09, Revision D.01,
 Gaussian 09:  ES64L-G09RevD.01 24-Apr-2013

 -----------------
 #RHF 6-31G(d',p')
 -----------------

 -------------------
 H2O.r0.80theta108.0
 -------------------
 Symbolic Z-matrix:
 Charge =  0 Multiplicity = 1

                         Standard orientation:
 ---------------------------------------------------------------------
 Center     Atomic      Atomic             Coordinates (Angstroms)
 Number     Number       Type             X           Y           Z
 ---------------------------------------------------------------------
      1          8           0        0.000000    0.000000    0.094046
      2          1           0        0.000000    0.647214   -0.376183
      3          1           0        0.000000   -0.647214   -0.376183
 ---------------------------------------------------------------------

 SCF Done:  E(RHF) =  -75.9614928024     A.U. after    9 cycles

 The electronic state is 1-A1.
 Alpha  occ. eigenvalues --  -20.52320  -1.43342  -0.80717  -0.58972  -0.51021
 Alpha virt. eigenvalues --    0.24289   0.33572   1.07898   1.09612   1.14752
 Alpha virt. eigenvalues --    1.19846   1.30181   1.44733   1.55560   1.77143
 Alpha virt. eigenvalues --    1.81064   2.15987   2.93504   2.96556   3.62770

 Mulliken charges:
               1
     1  O   -0.448085
     2  H    0.224043
     3  H    0.224043
 Sum of Mulliken charges =   0.00000

 Dipole moment (field-independent basis, Debye):
    X=              0.0000    Y=              0.0000    Z=             -1.9433  Tot=              1.9433
 Quadrupole moment (field-independent basis, Debye-Ang):
   XX=             -6.7291   YY=             -4.3146   ZZ=             -5.9252
   XY=              0.0000   XZ=              0.0000   YZ=              0.0000

 Normal termination of Gaussian 09 at Mon Sep 29 16:22:12 2014.
