 Gaussian 09, Revision D.01,
 Gaussian 09:  ES64L-G09RevD.01 24-Apr-2013

 -----------------
 #RHF 6-31G(d',p')
 -----------------

 ------------------
 H2O.r1.80theta70.0
 ------------------
 Symbolic Z-matrix:
 Charge =  0 Multiplicity = 1

                         Standard orientation:
 ---------------------------------------------------------------------
 Center     Atomic      Atomic             Coordinates (Angstroms)
 Number     Number       Type             X           Y           Z
 ---------------------------------------------------------------------
      1          8           0        0.000000    0.000000    0.294895
      2          1           0        0.000000    1.032438   -1.179579
      3          1           0        0.000000   -1.032438   -1.179579
 ---------------------------------------------------------------------

 SCF Done:  E(RHF) =  -75.6517677502     A.U. after   14 cycles

 The electronic state is 1-A1.
 Alpha  occ. eigenvalues --  -20.66167  -1.20776  -0.51350  -0.48507  -0.43968
 Alpha virt. eigenvalues --   -0.00286   0.04697   0.94315   0.98710   1.11735
 Alpha virt. eigenvalues --    1.15537   1.17742   1.22119   1.45973   1.51142
 Alpha virt. eigenvalues --    1.54942   1.63809   1.73139   2.06766   3.18307

 Mulliken charges:
               1
     1  O   -0.319212
     2  H    0.159606
     3  H    0.159606
 Sum of Mulliken charges =   0.00000

 Dipole moment (field-independent basis, Debye):
    X=              0.0000    Y=              0.0000    Z=             -2.4118  Tot=              2.4118
 Quadrupole moment (field-independent basis, Debye-Ang):
   XX=             -8.4853   YY=             -5.3229   ZZ=             -4.2462
   XY=              0.0000   XZ=              0.0000   YZ=              0.0000

 Normal termination of Gaussian 09 at Mon Sep 29 16:42:13 2014.
