 Gaussian 09, Revision D.01,
 Gaussian 09:  ES64L-G09RevD.01 24-Apr-2013

 -----------------
 #RHF 6-31G(d',p')
 -----------------

 -------------------
 H2O.r1.70theta151.0
 -------------------
 Symbolic Z-matrix:
 Charge =  0 Multiplicity = 1

                         Standard orientation:
 ---------------------------------------------------------------------
 Center     Atomic      Atomic             Coordinates (Angstroms)
 Number     Number       Type             X           Y           Z
 ---------------------------------------------------------------------
      1          8           0        0.000000    0.000000    0.085129
      2          1           0        0.000000    1.645851   -0.340517
      3          1           0        0.000000   -1.645851   -0.340517
 ---------------------------------------------------------------------

 SCF Done:  E(RHF) =  -75.6394355041     A.U. after   13 cycles

 The electronic state is 1-A1.
 Alpha  occ. eigenvalues --  -20.60286  -1.16540  -0.46512  -0.45293  -0.41760
 Alpha virt. eigenvalues --   -0.04445   0.11783   0.93425   0.95563   1.14549
 Alpha virt. eigenvalues --    1.16895   1.22525   1.33178   1.48821   1.48865
 Alpha virt. eigenvalues --    1.57490   1.59057   1.81553   2.09337   3.23561

 Mulliken charges:
               1
     1  O   -0.537549
     2  H    0.268774
     3  H    0.268774
 Sum of Mulliken charges =   0.00000

 Dipole moment (field-independent basis, Debye):
    X=              0.0000    Y=              0.0000    Z=             -1.0601  Tot=              1.0601
 Quadrupole moment (field-independent basis, Debye-Ang):
   XX=             -8.3514   YY=              1.5540   ZZ=             -7.7757
   XY=              0.0000   XZ=              0.0000   YZ=              0.0000

 Normal termination of Gaussian 09 at Mon Sep 29 16:41:07 2014.
