 Gaussian 09, Revision D.01,
 Gaussian 09:  ES64L-G09RevD.01 24-Apr-2013

 -----------------
 #RHF 6-31G(d',p')
 -----------------

 ------------------
 H2O.r1.85theta86.0
 ------------------
 Symbolic Z-matrix:
 Charge =  0 Multiplicity = 1

                         Standard orientation:
 ---------------------------------------------------------------------
 Center     Atomic      Atomic             Coordinates (Angstroms)
 Number     Number       Type             X           Y           Z
 ---------------------------------------------------------------------
      1          8           0        0.000000    0.000000    0.270601
      2          1           0        0.000000    1.261697   -1.082403
      3          1           0        0.000000   -1.261697   -1.082403
 ---------------------------------------------------------------------

 SCF Done:  E(RHF) =  -75.6228991282     A.U. after   13 cycles

 The electronic state is 1-A1.
 Alpha  occ. eigenvalues --  -20.67056  -1.20373  -0.51223  -0.45881  -0.42410
 Alpha virt. eigenvalues --   -0.00480   0.01863   0.93125   1.00988   1.12453
 Alpha virt. eigenvalues --    1.15540   1.18435   1.20241   1.50133   1.51701
 Alpha virt. eigenvalues --    1.53558   1.55672   1.73342   2.04734   3.18044

 Mulliken charges:
               1
     1  O   -0.343803
     2  H    0.171901
     3  H    0.171901
 Sum of Mulliken charges =   0.00000

 Dipole moment (field-independent basis, Debye):
    X=              0.0000    Y=              0.0000    Z=             -2.4718  Tot=              2.4718
 Quadrupole moment (field-independent basis, Debye-Ang):
   XX=             -8.4857   YY=             -3.9885   ZZ=             -4.6505
   XY=              0.0000   XZ=              0.0000   YZ=              0.0000

 Normal termination of Gaussian 09 at Mon Sep 29 16:43:23 2014.
