 Gaussian 09, Revision D.01,
 Gaussian 09:  ES64L-G09RevD.01 24-Apr-2013

 -----------------
 #RHF 6-31G(d',p')
 -----------------

 ------------------
 H2O.r1.50theta80.0
 ------------------
 Symbolic Z-matrix:
 Charge =  0 Multiplicity = 1

                         Standard orientation:
 ---------------------------------------------------------------------
 Center     Atomic      Atomic             Coordinates (Angstroms)
 Number     Number       Type             X           Y           Z
 ---------------------------------------------------------------------
      1          8           0        0.000000    0.000000    0.229813
      2          1           0        0.000000    0.964181   -0.919253
      3          1           0        0.000000   -0.964181   -0.919253
 ---------------------------------------------------------------------

 SCF Done:  E(RHF) =  -75.7781579727     A.U. after   11 cycles

 The electronic state is 1-A1.
 Alpha  occ. eigenvalues --  -20.64819  -1.21997  -0.50503  -0.50140  -0.49755
 Alpha virt. eigenvalues --    0.07902   0.09591   0.91595   0.95365   1.10930
 Alpha virt. eigenvalues --    1.17824   1.26371   1.35126   1.51981   1.53729
 Alpha virt. eigenvalues --    1.61177   1.68287   1.79113   2.08320   3.21682

 Mulliken charges:
               1
     1  O   -0.449901
     2  H    0.224951
     3  H    0.224951
 Sum of Mulliken charges =   0.00000

 Dipole moment (field-independent basis, Debye):
    X=              0.0000    Y=              0.0000    Z=             -2.6732  Tot=              2.6732
 Quadrupole moment (field-independent basis, Debye-Ang):
   XX=             -8.1661   YY=             -4.9040   ZZ=             -4.8134
   XY=              0.0000   XZ=              0.0000   YZ=              0.0000

 Normal termination of Gaussian 09 at Mon Sep 29 16:36:15 2014.
