 Gaussian 09, Revision D.01,
 Gaussian 09:  ES64L-G09RevD.01 24-Apr-2013

 -----------------
 #RHF 6-31G(d',p')
 -----------------

 -------------------
 H2O.r1.90theta103.0
 -------------------
 Symbolic Z-matrix:
 Charge =  0 Multiplicity = 1

                         Standard orientation:
 ---------------------------------------------------------------------
 Center     Atomic      Atomic             Coordinates (Angstroms)
 Number     Number       Type             X           Y           Z
 ---------------------------------------------------------------------
      1          8           0        0.000000    0.000000    0.236556
      2          1           0        0.000000    1.486955   -0.946222
      3          1           0        0.000000   -1.486955   -0.946222
 ---------------------------------------------------------------------

 SCF Done:  E(RHF) =  -75.5990217198     A.U. after   13 cycles

 The electronic state is 1-A1.
 Alpha  occ. eigenvalues --  -20.66933  -1.19748  -0.50824  -0.43429  -0.42326
 Alpha virt. eigenvalues --   -0.01668   0.01175   0.94344   1.00613   1.13191
 Alpha virt. eigenvalues --    1.14719   1.18739   1.19081   1.50001   1.50297
 Alpha virt. eigenvalues --    1.52110   1.55038   1.78943   1.96604   3.18514

 Mulliken charges:
               1
     1  O   -0.357331
     2  H    0.178665
     3  H    0.178665
 Sum of Mulliken charges =   0.00000

 Dipole moment (field-independent basis, Debye):
    X=              0.0000    Y=              0.0000    Z=             -2.2690  Tot=              2.2690
 Quadrupole moment (field-independent basis, Debye-Ang):
   XX=             -8.4877   YY=             -2.2374   ZZ=             -5.5166
   XY=              0.0000   XZ=              0.0000   YZ=              0.0000

 Normal termination of Gaussian 09 at Mon Sep 29 16:44:36 2014.
