 Gaussian 09, Revision D.01,
 Gaussian 09:  ES64L-G09RevD.01 24-Apr-2013

 -----------------
 #RHF 6-31G(d',p')
 -----------------

 -------------------
 H2O.r0.85theta122.0
 -------------------
 Symbolic Z-matrix:
 Charge =  0 Multiplicity = 1

                         Standard orientation:
 ---------------------------------------------------------------------
 Center     Atomic      Atomic             Coordinates (Angstroms)
 Number     Number       Type             X           Y           Z
 ---------------------------------------------------------------------
      1          8           0        0.000000    0.000000    0.082418
      2          1           0        0.000000    0.743427   -0.329671
      3          1           0        0.000000   -0.743427   -0.329671
 ---------------------------------------------------------------------

 SCF Done:  E(RHF) =  -75.9972095690     A.U. after    9 cycles

 The electronic state is 1-A1.
 Alpha  occ. eigenvalues --  -20.52673  -1.38596  -0.80204  -0.55203  -0.50010
 Alpha virt. eigenvalues --    0.23827   0.32408   1.02476   1.12725   1.15243
 Alpha virt. eigenvalues --    1.16285   1.27314   1.46293   1.49392   1.85327
 Alpha virt. eigenvalues --    1.86430   2.00893   2.76920   2.87652   3.47647

 Mulliken charges:
               1
     1  O   -0.513528
     2  H    0.256764
     3  H    0.256764
 Sum of Mulliken charges =   0.00000

 Dipole moment (field-independent basis, Debye):
    X=              0.0000    Y=              0.0000    Z=             -1.7559  Tot=              1.7559
 Quadrupole moment (field-independent basis, Debye-Ang):
   XX=             -6.8705   YY=             -3.7372   ZZ=             -6.2759
   XY=              0.0000   XZ=              0.0000   YZ=              0.0000

 Normal termination of Gaussian 09 at Mon Sep 29 16:23:31 2014.
