 Gaussian 09, Revision D.01,
 Gaussian 09:  ES64L-G09RevD.01 24-Apr-2013

 -----------------
 #RHF 6-31G(d',p')
 -----------------

 -------------------
 H2O.r1.15theta110.0
 -------------------
 Symbolic Z-matrix:
 Charge =  0 Multiplicity = 1

                         Standard orientation:
 ---------------------------------------------------------------------
 Center     Atomic      Atomic             Coordinates (Angstroms)
 Number     Number       Type             X           Y           Z
 ---------------------------------------------------------------------
      1          8           0        0.000000    0.000000    0.131923
      2          1           0        0.000000    0.942025   -0.527690
      3          1           0        0.000000   -0.942025   -0.527690
 ---------------------------------------------------------------------

 SCF Done:  E(RHF) =  -75.9595476979     A.U. after   10 cycles

 The electronic state is 1-A1.
 Alpha  occ. eigenvalues --  -20.58598  -1.26132  -0.62073  -0.52526  -0.48693
 Alpha virt. eigenvalues --    0.16098   0.24797   0.92913   0.97708   1.15498
 Alpha virt. eigenvalues --    1.16232   1.25097   1.42945   1.47822   1.71409
 Alpha virt. eigenvalues --    1.75456   1.79083   2.12733   2.19215   3.33794

 Mulliken charges:
               1
     1  O   -0.580331
     2  H    0.290166
     3  H    0.290166
 Sum of Mulliken charges =   0.00000

 Dipole moment (field-independent basis, Debye):
    X=              0.0000    Y=              0.0000    Z=             -2.1968  Tot=              2.1968
 Quadrupole moment (field-independent basis, Debye-Ang):
   XX=             -7.5700   YY=             -3.4031   ZZ=             -6.2237
   XY=              0.0000   XZ=              0.0000   YZ=              0.0000

 Normal termination of Gaussian 09 at Mon Sep 29 16:29:26 2014.
