 Gaussian 09, Revision D.01,
 Gaussian 09:  ES64L-G09RevD.01 24-Apr-2013

 -----------------
 #RHF 6-31G(d',p')
 -----------------

 -------------------
 H2O.r0.90theta122.0
 -------------------
 Symbolic Z-matrix:
 Charge =  0 Multiplicity = 1

                         Standard orientation:
 ---------------------------------------------------------------------
 Center     Atomic      Atomic             Coordinates (Angstroms)
 Number     Number       Type             X           Y           Z
 ---------------------------------------------------------------------
      1          8           0        0.000000    0.000000    0.087266
      2          1           0        0.000000    0.787158   -0.349063
      3          1           0        0.000000   -0.787158   -0.349063
 ---------------------------------------------------------------------

 SCF Done:  E(RHF) =  -76.0147429310     A.U. after   10 cycles

 The electronic state is 1-A1.
 Alpha  occ. eigenvalues --  -20.53566  -1.35619  -0.76804  -0.54327  -0.49459
 Alpha virt. eigenvalues --    0.22731   0.31616   0.99227   1.10082   1.15775
 Alpha virt. eigenvalues --    1.17062   1.25762   1.45502   1.48125   1.83270
 Alpha virt. eigenvalues --    1.83669   1.95316   2.63249   2.72982   3.44260

 Mulliken charges:
               1
     1  O   -0.547018
     2  H    0.273509
     3  H    0.273509
 Sum of Mulliken charges =   0.00000

 Dipole moment (field-independent basis, Debye):
    X=              0.0000    Y=              0.0000    Z=             -1.8064  Tot=              1.8064
 Quadrupole moment (field-independent basis, Debye-Ang):
   XX=             -6.9989   YY=             -3.5692   ZZ=             -6.3502
   XY=              0.0000   XZ=              0.0000   YZ=              0.0000

 Normal termination of Gaussian 09 at Mon Sep 29 16:24:34 2014.
