 Gaussian 09, Revision D.01,
 Gaussian 09:  ES64L-G09RevD.01 24-Apr-2013

 -----------------
 #RHF 6-31G(d',p')
 -----------------

 ------------------
 H2O.r0.90theta99.0
 ------------------
 Symbolic Z-matrix:
 Charge =  0 Multiplicity = 1

                         Standard orientation:
 ---------------------------------------------------------------------
 Center     Atomic      Atomic             Coordinates (Angstroms)
 Number     Number       Type             X           Y           Z
 ---------------------------------------------------------------------
      1          8           0        0.000000    0.000000    0.116901
      2          1           0        0.000000    0.684365   -0.467603
      3          1           0        0.000000   -0.684365   -0.467603
 ---------------------------------------------------------------------

 SCF Done:  E(RHF) =  -76.0185072003     A.U. after   10 cycles

 The electronic state is 1-A1.
 Alpha  occ. eigenvalues --  -20.54806  -1.37689  -0.72373  -0.59071  -0.50317
 Alpha virt. eigenvalues --    0.22325   0.31930   1.00532   1.06414   1.16485
 Alpha virt. eigenvalues --    1.19792   1.26989   1.39933   1.55324   1.68863
 Alpha virt. eigenvalues --    1.70004   2.08560   2.62565   2.68180   3.58285

 Mulliken charges:
               1
     1  O   -0.486718
     2  H    0.243359
     3  H    0.243359
 Sum of Mulliken charges =   0.00000

 Dipole moment (field-independent basis, Debye):
    X=              0.0000    Y=              0.0000    Z=             -2.1968  Tot=              2.1968
 Quadrupole moment (field-independent basis, Debye-Ang):
   XX=             -6.9809   YY=             -4.4804   ZZ=             -5.8164
   XY=              0.0000   XZ=              0.0000   YZ=              0.0000

 Normal termination of Gaussian 09 at Mon Sep 29 16:24:19 2014.
