 Gaussian 09, Revision D.01,
 Gaussian 09:  ES64L-G09RevD.01 24-Apr-2013

 -----------------
 #RHF 6-31G(d',p')
 -----------------

 ------------------
 H2O.r1.20theta83.0
 ------------------
 Symbolic Z-matrix:
 Charge =  0 Multiplicity = 1

                         Standard orientation:
 ---------------------------------------------------------------------
 Center     Atomic      Atomic             Coordinates (Angstroms)
 Number     Number       Type             X           Y           Z
 ---------------------------------------------------------------------
      1          8           0        0.000000    0.000000    0.179749
      2          1           0        0.000000    0.795144   -0.718997
      3          1           0        0.000000   -0.795144   -0.718997
 ---------------------------------------------------------------------

 SCF Done:  E(RHF) =  -75.9320656446     A.U. after   10 cycles

 The electronic state is 1-A1.
 Alpha  occ. eigenvalues --  -20.60993  -1.26491  -0.56907  -0.56333  -0.49900
 Alpha virt. eigenvalues --    0.15201   0.21238   0.93328   0.94895   1.13443
 Alpha virt. eigenvalues --    1.18214   1.27079   1.32661   1.54499   1.61034
 Alpha virt. eigenvalues --    1.66225   1.82297   2.11471   2.12782   3.30927

 Mulliken charges:
               1
     1  O   -0.511870
     2  H    0.255935
     3  H    0.255935
 Sum of Mulliken charges =   0.00000

 Dipole moment (field-independent basis, Debye):
    X=              0.0000    Y=              0.0000    Z=             -2.6249  Tot=              2.6249
 Quadrupole moment (field-independent basis, Debye-Ang):
   XX=             -7.6648   YY=             -4.9852   ZZ=             -5.2685
   XY=              0.0000   XZ=              0.0000   YZ=              0.0000

 Normal termination of Gaussian 09 at Mon Sep 29 16:30:07 2014.
