 Gaussian 09, Revision D.01,
 Gaussian 09:  ES64L-G09RevD.01 24-Apr-2013

 -----------------
 #RHF 6-31G(d',p')
 -----------------

 -------------------
 H2O.r1.65theta148.0
 -------------------
 Symbolic Z-matrix:
 Charge =  0 Multiplicity = 1

                         Standard orientation:
 ---------------------------------------------------------------------
 Center     Atomic      Atomic             Coordinates (Angstroms)
 Number     Number       Type             X           Y           Z
 ---------------------------------------------------------------------
      1          8           0        0.000000    0.000000    0.090960
      2          1           0        0.000000    1.586082   -0.363841
      3          1           0        0.000000   -1.586082   -0.363841
 ---------------------------------------------------------------------

 SCF Done:  E(RHF) =  -75.6642247132     A.U. after   12 cycles

 The electronic state is 1-A1.
 Alpha  occ. eigenvalues --  -20.60378  -1.16992  -0.46709  -0.46679  -0.42124
 Alpha virt. eigenvalues --   -0.02928   0.12638   0.93386   0.94713   1.14176
 Alpha virt. eigenvalues --    1.16695   1.25118   1.36159   1.48892   1.49184
 Alpha virt. eigenvalues --    1.58359   1.60525   1.82857   2.08198   3.23835

 Mulliken charges:
               1
     1  O   -0.548988
     2  H    0.274494
     3  H    0.274494
 Sum of Mulliken charges =   0.00000

 Dipole moment (field-independent basis, Debye):
    X=              0.0000    Y=              0.0000    Z=             -1.1677  Tot=              1.1677
 Quadrupole moment (field-independent basis, Debye-Ang):
   XX=             -8.3098   YY=              1.1077   ZZ=             -7.6664
   XY=              0.0000   XZ=              0.0000   YZ=              0.0000

 Normal termination of Gaussian 09 at Mon Sep 29 16:40:05 2014.
