 Gaussian 09, Revision D.01,
 Gaussian 09:  ES64L-G09RevD.01 24-Apr-2013

 -----------------
 #RHF 6-31G(d',p')
 -----------------

 -------------------
 H2O.r1.65theta102.0
 -------------------
 Symbolic Z-matrix:
 Charge =  0 Multiplicity = 1

                         Standard orientation:
 ---------------------------------------------------------------------
 Center     Atomic      Atomic             Coordinates (Angstroms)
 Number     Number       Type             X           Y           Z
 ---------------------------------------------------------------------
      1          8           0        0.000000    0.000000    0.207676
      2          1           0        0.000000    1.282291   -0.830703
      3          1           0        0.000000   -1.282291   -0.830703
 ---------------------------------------------------------------------

 SCF Done:  E(RHF) =  -75.7056129249     A.U. after   12 cycles

 The electronic state is 1-A1.
 Alpha  occ. eigenvalues --  -20.65365  -1.20319  -0.50172  -0.47419  -0.45765
 Alpha virt. eigenvalues --    0.03113   0.07219   0.91698   0.98142   1.11890
 Alpha virt. eigenvalues --    1.17751   1.27158   1.27364   1.50323   1.53945
 Alpha virt. eigenvalues --    1.55390   1.60705   1.78416   2.08657   3.20221

 Mulliken charges:
               1
     1  O   -0.432191
     2  H    0.216096
     3  H    0.216096
 Sum of Mulliken charges =   0.00000

 Dipole moment (field-independent basis, Debye):
    X=              0.0000    Y=              0.0000    Z=             -2.3236  Tot=              2.3236
 Quadrupole moment (field-independent basis, Debye-Ang):
   XX=             -8.3126   YY=             -2.8816   ZZ=             -5.6919
   XY=              0.0000   XZ=              0.0000   YZ=              0.0000

 Normal termination of Gaussian 09 at Mon Sep 29 16:39:33 2014.
