 Gaussian 09, Revision D.01,
 Gaussian 09:  ES64L-G09RevD.01 24-Apr-2013

 -----------------
 #RHF 6-31G(d',p')
 -----------------

 -------------------
 H2O.r1.25theta111.0
 -------------------
 Symbolic Z-matrix:
 Charge =  0 Multiplicity = 1

                         Standard orientation:
 ---------------------------------------------------------------------
 Center     Atomic      Atomic             Coordinates (Angstroms)
 Number     Number       Type             X           Y           Z
 ---------------------------------------------------------------------
      1          8           0        0.000000    0.000000    0.141602
      2          1           0        0.000000    1.030158   -0.566406
      3          1           0        0.000000   -1.030158   -0.566406
 ---------------------------------------------------------------------

 SCF Done:  E(RHF) =  -75.9074893428     A.U. after   11 cycles

 The electronic state is 1-A1.
 Alpha  occ. eigenvalues --  -20.60011  -1.23694  -0.58301  -0.50776  -0.48614
 Alpha virt. eigenvalues --    0.12956   0.21390   0.91105   0.96848   1.14234
 Alpha virt. eigenvalues --    1.16188   1.26439   1.42908   1.47944   1.70080
 Alpha virt. eigenvalues --    1.72160   1.73485   1.97805   2.10752   3.28968

 Mulliken charges:
               1
     1  O   -0.574636
     2  H    0.287318
     3  H    0.287318
 Sum of Mulliken charges =   0.00000

 Dipole moment (field-independent basis, Debye):
    X=              0.0000    Y=              0.0000    Z=             -2.1963  Tot=              2.1963
 Quadrupole moment (field-independent basis, Debye-Ang):
   XX=             -7.7668   YY=             -3.0776   ZZ=             -6.2707
   XY=              0.0000   XZ=              0.0000   YZ=              0.0000

 Normal termination of Gaussian 09 at Mon Sep 29 16:31:25 2014.
