 Gaussian 09, Revision D.01,
 Gaussian 09:  ES64L-G09RevD.01 24-Apr-2013

 -----------------
 #RHF 6-31G(d',p')
 -----------------

 -------------------
 H2O.r0.85theta140.0
 -------------------
 Symbolic Z-matrix:
 Charge =  0 Multiplicity = 1

                         Standard orientation:
 ---------------------------------------------------------------------
 Center     Atomic      Atomic             Coordinates (Angstroms)
 Number     Number       Type             X           Y           Z
 ---------------------------------------------------------------------
      1          8           0        0.000000    0.000000    0.058143
      2          1           0        0.000000    0.798739   -0.232574
      3          1           0        0.000000   -0.798739   -0.232574
 ---------------------------------------------------------------------

 SCF Done:  E(RHF) =  -75.9816938769     A.U. after   10 cycles

 The electronic state is 1-A1.
 Alpha  occ. eigenvalues --  -20.51729  -1.37151  -0.82748  -0.51977  -0.49390
 Alpha virt. eigenvalues --    0.23929   0.31956   0.94979   1.15707   1.16722
 Alpha virt. eigenvalues --    1.21991   1.27708   1.45864   1.47911   1.93483
 Alpha virt. eigenvalues --    1.94470   1.94654   2.72889   3.01559   3.35019

 Mulliken charges:
               1
     1  O   -0.564029
     2  H    0.282015
     3  H    0.282015
 Sum of Mulliken charges =   0.00000

 Dipole moment (field-independent basis, Debye):
    X=              0.0000    Y=              0.0000    Z=             -1.3428  Tot=              1.3428
 Quadrupole moment (field-independent basis, Debye-Ang):
   XX=             -6.8876   YY=             -3.1843   ZZ=             -6.5915
   XY=              0.0000   XZ=              0.0000   YZ=              0.0000

 Normal termination of Gaussian 09 at Mon Sep 29 16:23:45 2014.
