 Gaussian 09, Revision D.01,
 Gaussian 09:  ES64L-G09RevD.01 24-Apr-2013

 -----------------
 #RHF 6-31G(d',p')
 -----------------

 -------------------
 H2O.r1.70theta125.0
 -------------------
 Symbolic Z-matrix:
 Charge =  0 Multiplicity = 1

                         Standard orientation:
 ---------------------------------------------------------------------
 Center     Atomic      Atomic             Coordinates (Angstroms)
 Number     Number       Type             X           Y           Z
 ---------------------------------------------------------------------
      1          8           0        0.000000    0.000000    0.156995
      2          1           0        0.000000    1.507918   -0.627978
      3          1           0        0.000000   -1.507918   -0.627978
 ---------------------------------------------------------------------

 SCF Done:  E(RHF) =  -75.6692324710     A.U. after   13 cycles

 The electronic state is 1-A1.
 Alpha  occ. eigenvalues --  -20.64022  -1.18959  -0.49088  -0.46415  -0.43603
 Alpha virt. eigenvalues --   -0.00682   0.08577   0.94061   0.96280   1.12902
 Alpha virt. eigenvalues --    1.17485   1.22722   1.29818   1.49886   1.50222
 Alpha virt. eigenvalues --    1.55863   1.59540   1.91499   1.94384   3.21336

 Mulliken charges:
               1
     1  O   -0.454978
     2  H    0.227489
     3  H    0.227489
 Sum of Mulliken charges =   0.00000

 Dipole moment (field-independent basis, Debye):
    X=              0.0000    Y=              0.0000    Z=             -1.7958  Tot=              1.7958
 Quadrupole moment (field-independent basis, Debye-Ang):
   XX=             -8.3497   YY=             -0.7351   ZZ=             -6.7972
   XY=              0.0000   XZ=              0.0000   YZ=              0.0000

 Normal termination of Gaussian 09 at Mon Sep 29 16:40:49 2014.
