 Gaussian 09, Revision D.01,
 Gaussian 09:  ES64L-G09RevD.01 24-Apr-2013

 -----------------
 #RHF 6-31G(d',p')
 -----------------

 -------------------
 H2O.r1.65theta133.0
 -------------------
 Symbolic Z-matrix:
 Charge =  0 Multiplicity = 1

                         Standard orientation:
 ---------------------------------------------------------------------
 Center     Atomic      Atomic             Coordinates (Angstroms)
 Number     Number       Type             X           Y           Z
 ---------------------------------------------------------------------
      1          8           0        0.000000    0.000000    0.131587
      2          1           0        0.000000    1.513149   -0.526349
      3          1           0        0.000000   -1.513149   -0.526349
 ---------------------------------------------------------------------

 SCF Done:  E(RHF) =  -75.6831971835     A.U. after   13 cycles

 The electronic state is 1-A1.
 Alpha  occ. eigenvalues --  -20.62676  -1.18491  -0.48275  -0.47372  -0.43369
 Alpha virt. eigenvalues --   -0.00696   0.10814   0.93966   0.95025   1.13161
 Alpha virt. eigenvalues --    1.16984   1.25222   1.33721   1.49554   1.50151
 Alpha virt. eigenvalues --    1.57248   1.60792   1.90468   1.96808   3.22368

 Mulliken charges:
               1
     1  O   -0.495391
     2  H    0.247695
     3  H    0.247695
 Sum of Mulliken charges =   0.00000

 Dipole moment (field-independent basis, Debye):
    X=              0.0000    Y=              0.0000    Z=             -1.5991  Tot=              1.5991
 Quadrupole moment (field-independent basis, Debye-Ang):
   XX=             -8.3076   YY=             -0.1974   ZZ=             -7.1403
   XY=              0.0000   XZ=              0.0000   YZ=              0.0000

 Normal termination of Gaussian 09 at Mon Sep 29 16:39:53 2014.
