 Gaussian 09, Revision D.01,
 Gaussian 09:  ES64L-G09RevD.01 24-Apr-2013

 -----------------
 #RHF 6-31G(d',p')
 -----------------

 ------------------
 H2O.r0.75theta87.0
 ------------------
 Symbolic Z-matrix:
 Charge =  0 Multiplicity = 1

                         Standard orientation:
 ---------------------------------------------------------------------
 Center     Atomic      Atomic             Coordinates (Angstroms)
 Number     Number       Type             X           Y           Z
 ---------------------------------------------------------------------
      1          8           0        0.000000    0.000000    0.108806
      2          1           0        0.000000    0.516266   -0.435225
      3          1           0        0.000000   -0.516266   -0.435225
 ---------------------------------------------------------------------

 SCF Done:  E(RHF) =  -75.8709353009     A.U. after    9 cycles

 The electronic state is 1-A1.
 Alpha  occ. eigenvalues --  -20.51984  -1.50492  -0.77638  -0.64536  -0.52216
 Alpha virt. eigenvalues --    0.23850   0.35143   1.01528   1.09862   1.12597
 Alpha virt. eigenvalues --    1.34078   1.35422   1.41775   1.67463   1.69321
 Alpha virt. eigenvalues --    1.70027   2.38244   2.98531   3.24100   3.71605

 Mulliken charges:
               1
     1  O   -0.399359
     2  H    0.199680
     3  H    0.199680
 Sum of Mulliken charges =   0.00000

 Dipole moment (field-independent basis, Debye):
    X=              0.0000    Y=              0.0000    Z=             -2.1613  Tot=              2.1613
 Quadrupole moment (field-independent basis, Debye-Ang):
   XX=             -6.5967   YY=             -4.9991   ZZ=             -5.4582
   XY=              0.0000   XZ=              0.0000   YZ=              0.0000

 Normal termination of Gaussian 09 at Mon Sep 29 16:20:47 2014.
