 Gaussian 09, Revision D.01,
 Gaussian 09:  ES64L-G09RevD.01 24-Apr-2013

 -----------------
 #RHF 6-31G(d',p')
 -----------------

 -------------------
 H2O.r0.75theta112.0
 -------------------
 Symbolic Z-matrix:
 Charge =  0 Multiplicity = 1

                         Standard orientation:
 ---------------------------------------------------------------------
 Center     Atomic      Atomic             Coordinates (Angstroms)
 Number     Number       Type             X           Y           Z
 ---------------------------------------------------------------------
      1          8           0        0.000000    0.000000    0.083879
      2          1           0        0.000000    0.621778   -0.335516
      3          1           0        0.000000   -0.621778   -0.335516
 ---------------------------------------------------------------------

 SCF Done:  E(RHF) =  -75.8928073826     A.U. after    9 cycles

 The electronic state is 1-A1.
 Alpha  occ. eigenvalues --  -20.51184  -1.46626  -0.85325  -0.59053  -0.51556
 Alpha virt. eigenvalues --    0.25132   0.34022   1.10053   1.11604   1.13152
 Alpha virt. eigenvalues --    1.21122   1.33143   1.46899   1.56228   1.82883
 Alpha virt. eigenvalues --    1.87965   2.20246   3.11885   3.12687   3.64319

 Mulliken charges:
               1
     1  O   -0.416130
     2  H    0.208065
     3  H    0.208065
 Sum of Mulliken charges =   0.00000

 Dipole moment (field-independent basis, Debye):
    X=              0.0000    Y=              0.0000    Z=             -1.8181  Tot=              1.8181
 Quadrupole moment (field-independent basis, Debye-Ang):
   XX=             -6.5992   YY=             -4.2866   ZZ=             -5.9281
   XY=              0.0000   XZ=              0.0000   YZ=              0.0000

 Normal termination of Gaussian 09 at Mon Sep 29 16:21:06 2014.
