 Gaussian 09, Revision D.01,
 Gaussian 09:  ES64L-G09RevD.01 24-Apr-2013

 -----------------
 #RHF 6-31G(d',p')
 -----------------

 -------------------
 H2O.r1.50theta154.0
 -------------------
 Symbolic Z-matrix:
 Charge =  0 Multiplicity = 1

                         Standard orientation:
 ---------------------------------------------------------------------
 Center     Atomic      Atomic             Coordinates (Angstroms)
 Number     Number       Type             X           Y           Z
 ---------------------------------------------------------------------
      1          8           0        0.000000    0.000000    0.067485
      2          1           0        0.000000    1.461555   -0.269941
      3          1           0        0.000000   -1.461555   -0.269941
 ---------------------------------------------------------------------

 SCF Done:  E(RHF) =  -75.7229255786     A.U. after   12 cycles

 The electronic state is 1-A1.
 Alpha  occ. eigenvalues --  -20.57250  -1.16588  -0.50190  -0.44983  -0.42233
 Alpha virt. eigenvalues --   -0.00368   0.17671   0.92062   0.92615   1.14992
 Alpha virt. eigenvalues --    1.16472   1.34620   1.43799   1.47747   1.53168
 Alpha virt. eigenvalues --    1.62294   1.64848   1.80435   2.14384   3.25869

 Mulliken charges:
               1
     1  O   -0.662856
     2  H    0.331428
     3  H    0.331428
 Sum of Mulliken charges =   0.00000

 Dipole moment (field-independent basis, Debye):
    X=              0.0000    Y=              0.0000    Z=             -1.0367  Tot=              1.0367
 Quadrupole moment (field-independent basis, Debye-Ang):
   XX=             -8.1591   YY=              1.1540   ZZ=             -7.7570
   XY=              0.0000   XZ=              0.0000   YZ=              0.0000

 Normal termination of Gaussian 09 at Mon Sep 29 16:37:06 2014.
