 Gaussian 09, Revision D.01,
 Gaussian 09:  ES64L-G09RevD.01 24-Apr-2013

 -----------------
 #RHF 6-31G(d',p')
 -----------------

 -------------------
 H2O.r0.70theta158.0
 -------------------
 Symbolic Z-matrix:
 Charge =  0 Multiplicity = 1

                         Standard orientation:
 ---------------------------------------------------------------------
 Center     Atomic      Atomic             Coordinates (Angstroms)
 Number     Number       Type             X           Y           Z
 ---------------------------------------------------------------------
      1          8           0        0.000000    0.000000    0.026713
      2          1           0        0.000000    0.687139   -0.106853
      3          1           0        0.000000   -0.687139   -0.106853
 ---------------------------------------------------------------------

 SCF Done:  E(RHF) =  -75.7571805418     A.U. after    9 cycles

 The electronic state is 1-A1.
 Alpha  occ. eigenvalues --  -20.49301  -1.46346  -0.97808  -0.52567  -0.51622
 Alpha virt. eigenvalues --    0.27154   0.32792   1.01018   1.11516   1.11818
 Alpha virt. eigenvalues --    1.33721   1.41716   1.47578   1.52290   2.04169
 Alpha virt. eigenvalues --    2.20965   2.22234   3.19691   3.26051   3.31769

 Mulliken charges:
               1
     1  O   -0.421101
     2  H    0.210551
     3  H    0.210551
 Sum of Mulliken charges =   0.00000

 Dipole moment (field-independent basis, Debye):
    X=              0.0000    Y=              0.0000    Z=             -0.7187  Tot=              0.7187
 Quadrupole moment (field-independent basis, Debye-Ang):
   XX=             -6.4829   YY=             -3.5749   ZZ=             -6.4094
   XY=              0.0000   XZ=              0.0000   YZ=              0.0000

 Normal termination of Gaussian 09 at Mon Sep 29 16:20:34 2014.
