 Gaussian 09, Revision D.01,
 Gaussian 09:  ES64L-G09RevD.01 24-Apr-2013

 -----------------
 #RHF 6-31G(d',p')
 -----------------

 -------------------
 H2O.r1.30theta102.0
 -------------------
 Symbolic Z-matrix:
 Charge =  0 Multiplicity = 1

                         Standard orientation:
 ---------------------------------------------------------------------
 Center     Atomic      Atomic             Coordinates (Angstroms)
 Number     Number       Type             X           Y           Z
 ---------------------------------------------------------------------
      1          8           0        0.000000    0.000000    0.163623
      2          1           0        0.000000    1.010290   -0.654493
      3          1           0        0.000000   -1.010290   -0.654493
 ---------------------------------------------------------------------

 SCF Done:  E(RHF) =  -75.8844345675     A.U. after   11 cycles

 The electronic state is 1-A1.
 Alpha  occ. eigenvalues --  -20.61431  -1.23360  -0.55916  -0.51367  -0.49193
 Alpha virt. eigenvalues --    0.12107   0.18782   0.91164   0.95635   1.13189
 Alpha virt. eigenvalues --    1.16668   1.27168   1.42351   1.49216   1.67846
 Alpha virt. eigenvalues --    1.68771   1.73003   1.89543   2.08650   3.27842

 Mulliken charges:
               1
     1  O   -0.542702
     2  H    0.271351
     3  H    0.271351
 Sum of Mulliken charges =   0.00000

 Dipole moment (field-independent basis, Debye):
    X=              0.0000    Y=              0.0000    Z=             -2.3652  Tot=              2.3652
 Quadrupole moment (field-independent basis, Debye-Ang):
   XX=             -7.8559   YY=             -3.5970   ZZ=             -5.9189
   XY=              0.0000   XZ=              0.0000   YZ=              0.0000

 Normal termination of Gaussian 09 at Mon Sep 29 16:32:19 2014.
