 Gaussian 09, Revision D.01,
 Gaussian 09:  ES64L-G09RevD.01 24-Apr-2013

 -----------------
 #RHF 6-31G(d',p')
 -----------------

 ------------------
 H2O.r1.75theta97.0
 ------------------
 Symbolic Z-matrix:
 Charge =  0 Multiplicity = 1

                         Standard orientation:
 ---------------------------------------------------------------------
 Center     Atomic      Atomic             Coordinates (Angstroms)
 Number     Number       Type             X           Y           Z
 ---------------------------------------------------------------------
      1          8           0        0.000000    0.000000    0.231917
      2          1           0        0.000000    1.310673   -0.927668
      3          1           0        0.000000   -1.310673   -0.927668
 ---------------------------------------------------------------------

 SCF Done:  E(RHF) =  -75.6619759928     A.U. after   12 cycles

 The electronic state is 1-A1.
 Alpha  occ. eigenvalues --  -20.66359  -1.20219  -0.50657  -0.45803  -0.44456
 Alpha virt. eigenvalues --    0.01655   0.03879   0.92462   0.99525   1.12152
 Alpha virt. eigenvalues --    1.17714   1.22099   1.23278   1.50329   1.52698
 Alpha virt. eigenvalues --    1.53638   1.58193   1.77254   2.07459   3.18950

 Mulliken charges:
               1
     1  O   -0.392411
     2  H    0.196206
     3  H    0.196206
 Sum of Mulliken charges =   0.00000

 Dipole moment (field-independent basis, Debye):
    X=              0.0000    Y=              0.0000    Z=             -2.3959  Tot=              2.3959
 Quadrupole moment (field-independent basis, Debye-Ang):
   XX=             -8.3984   YY=             -3.1248   ZZ=             -5.3317
   XY=              0.0000   XZ=              0.0000   YZ=              0.0000

 Normal termination of Gaussian 09 at Mon Sep 29 16:41:31 2014.
