 Gaussian 09, Revision D.01,
 Gaussian 09:  ES64L-G09RevD.01 24-Apr-2013

 -----------------
 #RHF 6-31G(d',p')
 -----------------

 -------------------
 H2O.r1.25theta146.0
 -------------------
 Symbolic Z-matrix:
 Charge =  0 Multiplicity = 1

                         Standard orientation:
 ---------------------------------------------------------------------
 Center     Atomic      Atomic             Coordinates (Angstroms)
 Number     Number       Type             X           Y           Z
 ---------------------------------------------------------------------
      1          8           0        0.000000    0.000000    0.073093
      2          1           0        0.000000    1.195381   -0.292372
      3          1           0        0.000000   -1.195381   -0.292372
 ---------------------------------------------------------------------

 SCF Done:  E(RHF) =  -75.8662117875     A.U. after   11 cycles

 The electronic state is 1-A1.
 Alpha  occ. eigenvalues --  -20.55593  -1.20572  -0.59365  -0.45522  -0.45189
 Alpha virt. eigenvalues --    0.08761   0.24247   0.88281   0.97304   1.16573
 Alpha virt. eigenvalues --    1.16981   1.35728   1.44185   1.45421   1.70694
 Alpha virt. eigenvalues --    1.72173   1.72913   1.97021   2.17822   3.26873

 Mulliken charges:
               1
     1  O   -0.719010
     2  H    0.359505
     3  H    0.359505
 Sum of Mulliken charges =   0.00000

 Dipole moment (field-independent basis, Debye):
    X=              0.0000    Y=              0.0000    Z=             -1.3565  Tot=              1.3565
 Quadrupole moment (field-independent basis, Debye-Ang):
   XX=             -7.7847   YY=             -0.6246   ZZ=             -7.3491
   XY=              0.0000   XZ=              0.0000   YZ=              0.0000

 Normal termination of Gaussian 09 at Mon Sep 29 16:31:48 2014.
