 Gaussian 09, Revision D.01,
 Gaussian 09:  ES64L-G09RevD.01 24-Apr-2013

 -----------------
 #RHF 6-31G(d',p')
 -----------------

 -------------------
 H2O.r0.75theta147.0
 -------------------
 Symbolic Z-matrix:
 Charge =  0 Multiplicity = 1

                         Standard orientation:
 ---------------------------------------------------------------------
 Center     Atomic      Atomic             Coordinates (Angstroms)
 Number     Number       Type             X           Y           Z
 ---------------------------------------------------------------------
      1          8           0        0.000000    0.000000    0.042602
      2          1           0        0.000000    0.719115   -0.170409
      3          1           0        0.000000   -0.719115   -0.170409
 ---------------------------------------------------------------------

 SCF Done:  E(RHF) =  -75.8722517086     A.U. after    9 cycles

 The electronic state is 1-A1.
 Alpha  occ. eigenvalues --  -20.50083  -1.43344  -0.91935  -0.52828  -0.50832
 Alpha virt. eigenvalues --    0.26169   0.32713   0.99735   1.13173   1.13824
 Alpha virt. eigenvalues --    1.30793   1.33766   1.47348   1.50506   2.01583
 Alpha virt. eigenvalues --    2.07652   2.09356   3.04460   3.32946   3.38925

 Mulliken charges:
               1
     1  O   -0.473424
     2  H    0.236712
     3  H    0.236712
 Sum of Mulliken charges =   0.00000

 Dipole moment (field-independent basis, Debye):
    X=              0.0000    Y=              0.0000    Z=             -1.0702  Tot=              1.0702
 Quadrupole moment (field-independent basis, Debye-Ang):
   XX=             -6.6213   YY=             -3.5018   ZZ=             -6.4476
   XY=              0.0000   XZ=              0.0000   YZ=              0.0000

 Normal termination of Gaussian 09 at Mon Sep 29 16:21:34 2014.
