 Gaussian 09, Revision D.01,
 Gaussian 09:  ES64L-G09RevD.01 24-Apr-2013

 -----------------
 #RHF 6-31G(d',p')
 -----------------

 -------------------
 H2O.r1.45theta129.0
 -------------------
 Symbolic Z-matrix:
 Charge =  0 Multiplicity = 1

                         Standard orientation:
 ---------------------------------------------------------------------
 Center     Atomic      Atomic             Coordinates (Angstroms)
 Number     Number       Type             X           Y           Z
 ---------------------------------------------------------------------
      1          8           0        0.000000    0.000000    0.124848
      2          1           0        0.000000    1.308749   -0.499393
      3          1           0        0.000000   -1.308749   -0.499393
 ---------------------------------------------------------------------

 SCF Done:  E(RHF) =  -75.7837237755     A.U. after   11 cycles

 The electronic state is 1-A1.
 Alpha  occ. eigenvalues --  -20.60847  -1.19742  -0.52522  -0.47767  -0.45596
 Alpha virt. eigenvalues --    0.04816   0.16359   0.91031   0.95393   1.13302
 Alpha virt. eigenvalues --    1.16199   1.35911   1.37377   1.48572   1.58727
 Alpha virt. eigenvalues --    1.61655   1.66448   1.93375   1.95136   3.23971

 Mulliken charges:
               1
     1  O   -0.569471
     2  H    0.284735
     3  H    0.284735
 Sum of Mulliken charges =   0.00000

 Dipole moment (field-independent basis, Debye):
    X=              0.0000    Y=              0.0000    Z=             -1.7689  Tot=              1.7689
 Quadrupole moment (field-independent basis, Debye-Ang):
   XX=             -8.0876   YY=             -1.1404   ZZ=             -6.9645
   XY=              0.0000   XZ=              0.0000   YZ=              0.0000

 Normal termination of Gaussian 09 at Mon Sep 29 16:35:47 2014.
