 Gaussian 09, Revision D.01,
 Gaussian 09:  ES64L-G09RevD.01 24-Apr-2013

 -----------------
 #RHF 6-31G(d',p')
 -----------------

 -------------------
 H2O.r1.75theta101.0
 -------------------
 Symbolic Z-matrix:
 Charge =  0 Multiplicity = 1

                         Standard orientation:
 ---------------------------------------------------------------------
 Center     Atomic      Atomic             Coordinates (Angstroms)
 Number     Number       Type             X           Y           Z
 ---------------------------------------------------------------------
      1          8           0        0.000000    0.000000    0.222627
      2          1           0        0.000000    1.350343   -0.890510
      3          1           0        0.000000   -1.350343   -0.890510
 ---------------------------------------------------------------------

 SCF Done:  E(RHF) =  -75.6610351259     A.U. after   12 cycles

 The electronic state is 1-A1.
 Alpha  occ. eigenvalues --  -20.66177  -1.20068  -0.50510  -0.45702  -0.44356
 Alpha virt. eigenvalues --    0.01197   0.04410   0.92687   0.99287   1.12264
 Alpha virt. eigenvalues --    1.17778   1.21775   1.23941   1.50302   1.51923
 Alpha virt. eigenvalues --    1.53872   1.58270   1.78930   2.05855   3.19166

 Mulliken charges:
               1
     1  O   -0.397678
     2  H    0.198839
     3  H    0.198839
 Sum of Mulliken charges =   0.00000

 Dipole moment (field-independent basis, Debye):
    X=              0.0000    Y=              0.0000    Z=             -2.3250  Tot=              2.3250
 Quadrupole moment (field-independent basis, Debye-Ang):
   XX=             -8.3952   YY=             -2.7599   ZZ=             -5.5492
   XY=              0.0000   XZ=              0.0000   YZ=              0.0000

 Normal termination of Gaussian 09 at Mon Sep 29 16:41:33 2014.
