 Gaussian 09, Revision D.01,
 Gaussian 09:  ES64L-G09RevD.01 24-Apr-2013

 -----------------
 #RHF 6-31G(d',p')
 -----------------

 -------------------
 H2O.r1.60theta147.0
 -------------------
 Symbolic Z-matrix:
 Charge =  0 Multiplicity = 1

                         Standard orientation:
 ---------------------------------------------------------------------
 Center     Atomic      Atomic             Coordinates (Angstroms)
 Number     Number       Type             X           Y           Z
 ---------------------------------------------------------------------
      1          8           0        0.000000    0.000000    0.090885
      2          1           0        0.000000    1.534112   -0.363540
      3          1           0        0.000000   -1.534112   -0.363540
 ---------------------------------------------------------------------

 SCF Done:  E(RHF) =  -75.6873852181     A.U. after   12 cycles

 The electronic state is 1-A1.
 Alpha  occ. eigenvalues --  -20.60002  -1.17215  -0.48002  -0.46552  -0.42433
 Alpha virt. eigenvalues --   -0.01672   0.13873   0.93276   0.93844   1.14067
 Alpha virt. eigenvalues --    1.16508   1.28063   1.39053   1.48769   1.49743
 Alpha virt. eigenvalues --    1.59323   1.61981   1.83327   2.07829   3.24201

 Mulliken charges:
               1
     1  O   -0.570127
     2  H    0.285064
     3  H    0.285064
 Sum of Mulliken charges =   0.00000

 Dipole moment (field-independent basis, Debye):
    X=              0.0000    Y=              0.0000    Z=             -1.2158  Tot=              1.2158
 Quadrupole moment (field-independent basis, Debye-Ang):
   XX=             -8.2637   YY=              0.8533   ZZ=             -7.6172
   XY=              0.0000   XZ=              0.0000   YZ=              0.0000

 Normal termination of Gaussian 09 at Mon Sep 29 16:39:03 2014.
