 Gaussian 09, Revision D.01,
 Gaussian 09:  ES64L-G09RevD.01 24-Apr-2013

 -----------------
 #RHF 6-31G(d',p')
 -----------------

 -------------------
 H2O.r1.20theta123.0
 -------------------
 Symbolic Z-matrix:
 Charge =  0 Multiplicity = 1

                         Standard orientation:
 ---------------------------------------------------------------------
 Center     Atomic      Atomic             Coordinates (Angstroms)
 Number     Number       Type             X           Y           Z
 ---------------------------------------------------------------------
      1          8           0        0.000000    0.000000    0.114518
      2          1           0        0.000000    1.054581   -0.458072
      3          1           0        0.000000   -1.054581   -0.458072
 ---------------------------------------------------------------------

 SCF Done:  E(RHF) =  -75.9240554129     A.U. after   11 cycles

 The electronic state is 1-A1.
 Alpha  occ. eigenvalues --  -20.58109  -1.23877  -0.61034  -0.49502  -0.47779
 Alpha virt. eigenvalues --    0.13450   0.24035   0.90399   0.98882   1.15551
 Alpha virt. eigenvalues --    1.16063   1.26395   1.43394   1.46412   1.72818
 Alpha virt. eigenvalues --    1.74196   1.75115   2.09578   2.12566   3.29294

 Mulliken charges:
               1
     1  O   -0.620082
     2  H    0.310041
     3  H    0.310041
 Sum of Mulliken charges =   0.00000

 Dipole moment (field-independent basis, Debye):
    X=              0.0000    Y=              0.0000    Z=             -1.9445  Tot=              1.9445
 Quadrupole moment (field-independent basis, Debye-Ang):
   XX=             -7.6764   YY=             -2.4164   ZZ=             -6.6646
   XY=              0.0000   XZ=              0.0000   YZ=              0.0000

 Normal termination of Gaussian 09 at Mon Sep 29 16:30:33 2014.
