 Gaussian 09, Revision D.01,
 Gaussian 09:  ES64L-G09RevD.01 24-Apr-2013

 -----------------
 #RHF 6-31G(d',p')
 -----------------

 -------------------
 H2O.r1.90theta160.0
 -------------------
 Symbolic Z-matrix:
 Charge =  0 Multiplicity = 1

                         Standard orientation:
 ---------------------------------------------------------------------
 Center     Atomic      Atomic             Coordinates (Angstroms)
 Number     Number       Type             X           Y           Z
 ---------------------------------------------------------------------
      1          8           0        0.000000    0.000000    0.065986
      2          1           0        0.000000    1.871135   -0.263945
      3          1           0        0.000000   -1.871135   -0.263945
 ---------------------------------------------------------------------

 SCF Done:  E(RHF) =  -75.5574154632     A.U. after   14 cycles

 The electronic state is 1-A1.
 Alpha  occ. eigenvalues --  -20.59098  -1.14884  -0.45643  -0.42125  -0.39580
 Alpha virt. eigenvalues --   -0.09885   0.09823   0.94756   0.96988   1.16291
 Alpha virt. eigenvalues --    1.16668   1.18386   1.22263   1.47947   1.47968
 Alpha virt. eigenvalues --    1.53338   1.53746   1.75944   2.03281   3.23480

 Mulliken charges:
               1
     1  O   -0.494164
     2  H    0.247082
     3  H    0.247082
 Sum of Mulliken charges =   0.00000

 Dipole moment (field-independent basis, Debye):
    X=              0.0000    Y=              0.0000    Z=             -0.7535  Tot=              0.7535
 Quadrupole moment (field-independent basis, Debye-Ang):
   XX=             -8.4773   YY=              3.2387   ZZ=             -8.1487
   XY=              0.0000   XZ=              0.0000   YZ=              0.0000

 Normal termination of Gaussian 09 at Mon Sep 29 16:45:14 2014.
