 Gaussian 09, Revision D.01,
 Gaussian 09:  ES64L-G09RevD.01 24-Apr-2013

 -----------------
 #RHF 6-31G(d',p')
 -----------------

 -------------------
 H2O.r0.75theta158.0
 -------------------
 Symbolic Z-matrix:
 Charge =  0 Multiplicity = 1

                         Standard orientation:
 ---------------------------------------------------------------------
 Center     Atomic      Atomic             Coordinates (Angstroms)
 Number     Number       Type             X           Y           Z
 ---------------------------------------------------------------------
      1          8           0        0.000000    0.000000    0.028621
      2          1           0        0.000000    0.736220   -0.114485
      3          1           0        0.000000   -0.736220   -0.114485
 ---------------------------------------------------------------------

 SCF Done:  E(RHF) =  -75.8630797509     A.U. after    9 cycles

 The electronic state is 1-A1.
 Alpha  occ. eigenvalues --  -20.49815  -1.42710  -0.92991  -0.51564  -0.50660
 Alpha virt. eigenvalues --    0.26319   0.32460   0.96188   1.13633   1.13955
 Alpha virt. eigenvalues --    1.31511   1.38958   1.46015   1.51060   1.98139
 Alpha virt. eigenvalues --    2.12739   2.13696   3.01838   3.25812   3.27402

 Mulliken charges:
               1
     1  O   -0.491879
     2  H    0.245940
     3  H    0.245940
 Sum of Mulliken charges =   0.00000

 Dipole moment (field-independent basis, Debye):
    X=              0.0000    Y=              0.0000    Z=             -0.7452  Tot=              0.7452
 Quadrupole moment (field-independent basis, Debye-Ang):
   XX=             -6.6275   YY=             -3.3430   ZZ=             -6.5489
   XY=              0.0000   XZ=              0.0000   YZ=              0.0000

 Normal termination of Gaussian 09 at Mon Sep 29 16:21:41 2014.
