 Gaussian 09, Revision D.01,
 Gaussian 09:  ES64L-G09RevD.01 24-Apr-2013

 -----------------
 #RHF 6-31G(d',p')
 -----------------

 -------------------
 H2O.r1.15theta134.0
 -------------------
 Symbolic Z-matrix:
 Charge =  0 Multiplicity = 1

                         Standard orientation:
 ---------------------------------------------------------------------
 Center     Atomic      Atomic             Coordinates (Angstroms)
 Number     Number       Type             X           Y           Z
 ---------------------------------------------------------------------
      1          8           0        0.000000    0.000000    0.089868
      2          1           0        0.000000    1.058581   -0.359473
      3          1           0        0.000000   -1.058581   -0.359473
 ---------------------------------------------------------------------

 SCF Done:  E(RHF) =  -75.9365832811     A.U. after   11 cycles

 The electronic state is 1-A1.
 Alpha  occ. eigenvalues --  -20.56125  -1.24216  -0.63777  -0.48287  -0.46978
 Alpha virt. eigenvalues --    0.14031   0.26215   0.89147   1.01125   1.16652
 Alpha virt. eigenvalues --    1.16882   1.27724   1.44243   1.45116   1.75614
 Alpha virt. eigenvalues --    1.75635   1.77652   2.14639   2.23463   3.29140

 Mulliken charges:
               1
     1  O   -0.667941
     2  H    0.333970
     3  H    0.333970
 Sum of Mulliken charges =   0.00000

 Dipole moment (field-independent basis, Debye):
    X=              0.0000    Y=              0.0000    Z=             -1.6780  Tot=              1.6780
 Quadrupole moment (field-independent basis, Debye-Ang):
   XX=             -7.5843   YY=             -1.9168   ZZ=             -6.9416
   XY=              0.0000   XZ=              0.0000   YZ=              0.0000

 Normal termination of Gaussian 09 at Mon Sep 29 16:29:41 2014.
