 Gaussian 09, Revision D.01,
 Gaussian 09:  ES64L-G09RevD.01 24-Apr-2013

 -----------------
 #RHF 6-31G(d',p')
 -----------------

 -------------------
 H2O.r1.90theta131.0
 -------------------
 Symbolic Z-matrix:
 Charge =  0 Multiplicity = 1

                         Standard orientation:
 ---------------------------------------------------------------------
 Center     Atomic      Atomic             Coordinates (Angstroms)
 Number     Number       Type             X           Y           Z
 ---------------------------------------------------------------------
      1          8           0        0.000000    0.000000    0.157583
      2          1           0        0.000000    1.728926   -0.630334
      3          1           0        0.000000   -1.728926   -0.630334
 ---------------------------------------------------------------------

 SCF Done:  E(RHF) =  -75.5844442418     A.U. after   13 cycles

 The electronic state is 1-A1.
 Alpha  occ. eigenvalues --  -20.64522  -1.18189  -0.49192  -0.42314  -0.41989
 Alpha virt. eigenvalues --   -0.05536   0.05207   0.96523   0.97376   1.14305
 Alpha virt. eigenvalues --    1.15055   1.18414   1.20446   1.49379   1.49436
 Alpha virt. eigenvalues --    1.52898   1.54732   1.84822   1.91435   3.20644

 Mulliken charges:
               1
     1  O   -0.401453
     2  H    0.200727
     3  H    0.200727
 Sum of Mulliken charges =   0.00000

 Dipole moment (field-independent basis, Debye):
    X=              0.0000    Y=              0.0000    Z=             -1.6185  Tot=              1.6185
 Quadrupole moment (field-independent basis, Debye-Ang):
   XX=             -8.4785   YY=              0.4801   ZZ=             -7.0603
   XY=              0.0000   XZ=              0.0000   YZ=              0.0000

 Normal termination of Gaussian 09 at Mon Sep 29 16:44:54 2014.
