 Gaussian 09, Revision D.01,
 Gaussian 09:  ES64L-G09RevD.01 24-Apr-2013

 -----------------
 #RHF 6-31G(d',p')
 -----------------

 -------------------
 H2O.r1.00theta155.0
 -------------------
 Symbolic Z-matrix:
 Charge =  0 Multiplicity = 1

                         Standard orientation:
 ---------------------------------------------------------------------
 Center     Atomic      Atomic             Coordinates (Angstroms)
 Number     Number       Type             X           Y           Z
 ---------------------------------------------------------------------
      1          8           0        0.000000    0.000000    0.043288
      2          1           0        0.000000    0.976296   -0.173152
      3          1           0        0.000000   -0.976296   -0.173152
 ---------------------------------------------------------------------

 SCF Done:  E(RHF) =  -75.9717314693     A.U. after   10 cycles

 The electronic state is 1-A1.
 Alpha  occ. eigenvalues --  -20.52226  -1.27986  -0.72881  -0.47272  -0.46566
 Alpha virt. eigenvalues --    0.18186   0.29853   0.86213   1.10031   1.18601
 Alpha virt. eigenvalues --    1.19014   1.34417   1.43192   1.47206   1.80754
 Alpha virt. eigenvalues --    1.85582   1.86264   2.30811   2.69002   3.27047

 Mulliken charges:
               1
     1  O   -0.721543
     2  H    0.360771
     3  H    0.360771
 Sum of Mulliken charges =   0.00000

 Dipole moment (field-independent basis, Debye):
    X=              0.0000    Y=              0.0000    Z=             -0.9907  Tot=              0.9907
 Quadrupole moment (field-independent basis, Debye-Ang):
   XX=             -7.2751   YY=             -1.7900   ZZ=             -7.1189
   XY=              0.0000   XZ=              0.0000   YZ=              0.0000

 Normal termination of Gaussian 09 at Mon Sep 29 16:26:55 2014.
