 Gaussian 09, Revision D.01,
 Gaussian 09:  ES64L-G09RevD.01 24-Apr-2013

 -----------------
 #RHF 6-31G(d',p')
 -----------------

 -------------------
 H2O.r1.75theta140.0
 -------------------
 Symbolic Z-matrix:
 Charge =  0 Multiplicity = 1

                         Standard orientation:
 ---------------------------------------------------------------------
 Center     Atomic      Atomic             Coordinates (Angstroms)
 Number     Number       Type             X           Y           Z
 ---------------------------------------------------------------------
      1          8           0        0.000000    0.000000    0.119707
      2          1           0        0.000000    1.644462   -0.478828
      3          1           0        0.000000   -1.644462   -0.478828
 ---------------------------------------------------------------------

 SCF Done:  E(RHF) =  -75.6330732114     A.U. after   13 cycles

 The electronic state is 1-A1.
 Alpha  occ. eigenvalues --  -20.62607  -1.17698  -0.48027  -0.44861  -0.42288
 Alpha virt. eigenvalues --   -0.03788   0.09164   0.94958   0.95808   1.13911
 Alpha virt. eigenvalues --    1.17338   1.20020   1.28797   1.49367   1.49382
 Alpha virt. eigenvalues --    1.55846   1.58018   1.85629   2.00908   3.22011

 Mulliken charges:
               1
     1  O   -0.474455
     2  H    0.237228
     3  H    0.237228
 Sum of Mulliken charges =   0.00000

 Dipole moment (field-independent basis, Debye):
    X=              0.0000    Y=              0.0000    Z=             -1.3789  Tot=              1.3789
 Quadrupole moment (field-independent basis, Debye-Ang):
   XX=             -8.3874   YY=              0.7382   ZZ=             -7.4221
   XY=              0.0000   XZ=              0.0000   YZ=              0.0000

 Normal termination of Gaussian 09 at Mon Sep 29 16:41:58 2014.
