 Gaussian 09, Revision D.01,
 Gaussian 09:  ES64L-G09RevD.01 24-Apr-2013

 -----------------
 #RHF 6-31G(d',p')
 -----------------

 -------------------
 H2O.r0.80theta127.0
 -------------------
 Symbolic Z-matrix:
 Charge =  0 Multiplicity = 1

                         Standard orientation:
 ---------------------------------------------------------------------
 Center     Atomic      Atomic             Coordinates (Angstroms)
 Number     Number       Type             X           Y           Z
 ---------------------------------------------------------------------
      1          8           0        0.000000    0.000000    0.071392
      2          1           0        0.000000    0.715947   -0.285567
      3          1           0        0.000000   -0.715947   -0.285567
 ---------------------------------------------------------------------

 SCF Done:  E(RHF) =  -75.9556733706     A.U. after    9 cycles

 The electronic state is 1-A1.
 Alpha  occ. eigenvalues --  -20.51548  -1.41431  -0.84779  -0.55146  -0.50498
 Alpha virt. eigenvalues --    0.24876   0.32890   1.04121   1.14234   1.15167
 Alpha virt. eigenvalues --    1.18037   1.29454   1.47824   1.49678   1.91134
 Alpha virt. eigenvalues --    1.93233   2.04357   2.91435   3.07546   3.47026

 Mulliken charges:
               1
     1  O   -0.485257
     2  H    0.242628
     3  H    0.242628
 Sum of Mulliken charges =   0.00000

 Dipole moment (field-independent basis, Debye):
    X=              0.0000    Y=              0.0000    Z=             -1.6011  Tot=              1.6011
 Quadrupole moment (field-independent basis, Debye-Ang):
   XX=             -6.7430   YY=             -3.7510   ZZ=             -6.2804
   XY=              0.0000   XZ=              0.0000   YZ=              0.0000

 Normal termination of Gaussian 09 at Mon Sep 29 16:22:24 2014.
