 Gaussian 09, Revision D.01,
 Gaussian 09:  ES64L-G09RevD.01 24-Apr-2013

 -----------------
 #RHF 6-31G(d',p')
 -----------------

 -------------------
 H2O.r1.45theta139.0
 -------------------
 Symbolic Z-matrix:
 Charge =  0 Multiplicity = 1

                         Standard orientation:
 ---------------------------------------------------------------------
 Center     Atomic      Atomic             Coordinates (Angstroms)
 Number     Number       Type             X           Y           Z
 ---------------------------------------------------------------------
      1          8           0        0.000000    0.000000    0.101560
      2          1           0        0.000000    1.358175   -0.406241
      3          1           0        0.000000   -1.358175   -0.406241
 ---------------------------------------------------------------------

 SCF Done:  E(RHF) =  -75.7704726241     A.U. after   11 cycles

 The electronic state is 1-A1.
 Alpha  occ. eigenvalues --  -20.59443  -1.18800  -0.52420  -0.46779  -0.44329
 Alpha virt. eigenvalues --    0.03341   0.17449   0.91194   0.94397   1.13960
 Alpha virt. eigenvalues --    1.16153   1.37230   1.39241   1.48110   1.57808
 Alpha virt. eigenvalues --    1.62261   1.66513   1.89034   2.01190   3.24582

 Mulliken charges:
               1
     1  O   -0.609021
     2  H    0.304511
     3  H    0.304511
 Sum of Mulliken charges =   0.00000

 Dipole moment (field-independent basis, Debye):
    X=              0.0000    Y=              0.0000    Z=             -1.5068  Tot=              1.5068
 Quadrupole moment (field-independent basis, Debye-Ang):
   XX=             -8.0909   YY=             -0.3302   ZZ=             -7.3072
   XY=              0.0000   XZ=              0.0000   YZ=              0.0000

 Normal termination of Gaussian 09 at Mon Sep 29 16:35:54 2014.
