 Gaussian 09, Revision D.01,
 Gaussian 09:  ES64L-G09RevD.01 24-Apr-2013

 -----------------
 #RHF 6-31G(d',p')
 -----------------

 -------------------
 H2O.r1.30theta150.0
 -------------------
 Symbolic Z-matrix:
 Charge =  0 Multiplicity = 1

                         Standard orientation:
 ---------------------------------------------------------------------
 Center     Atomic      Atomic             Coordinates (Angstroms)
 Number     Number       Type             X           Y           Z
 ---------------------------------------------------------------------
      1          8           0        0.000000    0.000000    0.067293
      2          1           0        0.000000    1.255704   -0.269172
      3          1           0        0.000000   -1.255704   -0.269172
 ---------------------------------------------------------------------

 SCF Done:  E(RHF) =  -75.8326463446     A.U. after   11 cycles

 The electronic state is 1-A1.
 Alpha  occ. eigenvalues --  -20.55467  -1.19162  -0.57191  -0.44982  -0.44124
 Alpha virt. eigenvalues --    0.06378   0.23168   0.88674   0.95642   1.16337
 Alpha virt. eigenvalues --    1.16967   1.38951   1.43603   1.45831   1.67907
 Alpha virt. eigenvalues --    1.69618   1.71293   1.90471   2.16620   3.26664

 Mulliken charges:
               1
     1  O   -0.730380
     2  H    0.365190
     3  H    0.365190
 Sum of Mulliken charges =   0.00000

 Dipole moment (field-independent basis, Debye):
    X=              0.0000    Y=              0.0000    Z=             -1.2290  Tot=              1.2290
 Quadrupole moment (field-independent basis, Debye-Ang):
   XX=             -7.8737   YY=             -0.0662   ZZ=             -7.4956
   XY=              0.0000   XZ=              0.0000   YZ=              0.0000

 Normal termination of Gaussian 09 at Mon Sep 29 16:32:51 2014.
