 Gaussian 09, Revision D.01,
 Gaussian 09:  ES64L-G09RevD.01 24-Apr-2013

 -----------------
 #RHF 6-31G(d',p')
 -----------------

 -------------------
 H2O.r1.55theta149.0
 -------------------
 Symbolic Z-matrix:
 Charge =  0 Multiplicity = 1

                         Standard orientation:
 ---------------------------------------------------------------------
 Center     Atomic      Atomic             Coordinates (Angstroms)
 Number     Number       Type             X           Y           Z
 ---------------------------------------------------------------------
      1          8           0        0.000000    0.000000    0.082844
      2          1           0        0.000000    1.493627   -0.331376
      3          1           0        0.000000   -1.493627   -0.331376
 ---------------------------------------------------------------------

 SCF Done:  E(RHF) =  -75.7071191289     A.U. after   12 cycles

 The electronic state is 1-A1.
 Alpha  occ. eigenvalues --  -20.58996  -1.17103  -0.49168  -0.46014  -0.42497
 Alpha virt. eigenvalues --   -0.00820   0.15561   0.92997   0.93001   1.14314
 Alpha virt. eigenvalues --    1.16384   1.31239   1.41720   1.48396   1.50897
 Alpha virt. eigenvalues --    1.60584   1.63418   1.82444   2.09702   3.24811

 Mulliken charges:
               1
     1  O   -0.606470
     2  H    0.303235
     3  H    0.303235
 Sum of Mulliken charges =   0.00000

 Dipole moment (field-independent basis, Debye):
    X=              0.0000    Y=              0.0000    Z=             -1.1745  Tot=              1.1745
 Quadrupole moment (field-independent basis, Debye-Ang):
   XX=             -8.2134   YY=              0.8678   ZZ=             -7.6538
   XY=              0.0000   XZ=              0.0000   YZ=              0.0000

 Normal termination of Gaussian 09 at Mon Sep 29 16:38:02 2014.
