 Gaussian 09, Revision D.01,
 Gaussian 09:  ES64L-G09RevD.01 24-Apr-2013

 -----------------
 #RHF 6-31G(d',p')
 -----------------

 -------------------
 H2O.r1.25theta160.0
 -------------------
 Symbolic Z-matrix:
 Charge =  0 Multiplicity = 1

                         Standard orientation:
 ---------------------------------------------------------------------
 Center     Atomic      Atomic             Coordinates (Angstroms)
 Number     Number       Type             X           Y           Z
 ---------------------------------------------------------------------
      1          8           0        0.000000    0.000000    0.043412
      2          1           0        0.000000    1.231010   -0.173648
      3          1           0        0.000000   -1.231010   -0.173648
 ---------------------------------------------------------------------

 SCF Done:  E(RHF) =  -75.8455148873     A.U. after   11 cycles

 The electronic state is 1-A1.
 Alpha  occ. eigenvalues --  -20.53045  -1.18828  -0.58843  -0.43718  -0.43306
 Alpha virt. eigenvalues --    0.06932   0.25259   0.87343   0.96407   1.17887
 Alpha virt. eigenvalues --    1.18098   1.41091   1.44785   1.45512   1.70731
 Alpha virt. eigenvalues --    1.72618   1.73191   1.90897   2.29298   3.27431

 Mulliken charges:
               1
     1  O   -0.805534
     2  H    0.402767
     3  H    0.402767
 Sum of Mulliken charges =   0.00000

 Dipole moment (field-independent basis, Debye):
    X=              0.0000    Y=              0.0000    Z=             -0.8859  Tot=              0.8859
 Quadrupole moment (field-independent basis, Debye-Ang):
   XX=             -7.7938   YY=              0.3569   ZZ=             -7.6275
   XY=              0.0000   XZ=              0.0000   YZ=              0.0000

 Normal termination of Gaussian 09 at Mon Sep 29 16:31:57 2014.
