 Gaussian 09, Revision D.01,
 Gaussian 09:  ES64L-G09RevD.01 24-Apr-2013

 -----------------
 #RHF 6-31G(d',p')
 -----------------

 ------------------
 H2O.r1.50theta94.0
 ------------------
 Symbolic Z-matrix:
 Charge =  0 Multiplicity = 1

                         Standard orientation:
 ---------------------------------------------------------------------
 Center     Atomic      Atomic             Coordinates (Angstroms)
 Number     Number       Type             X           Y           Z
 ---------------------------------------------------------------------
      1          8           0        0.000000    0.000000    0.204600
      2          1           0        0.000000    1.097031   -0.818398
      3          1           0        0.000000   -1.097031   -0.818398
 ---------------------------------------------------------------------

 SCF Done:  E(RHF) =  -75.7800898315     A.U. after   11 cycles

 The electronic state is 1-A1.
 Alpha  occ. eigenvalues --  -20.64363  -1.21467  -0.50217  -0.50048  -0.48853
 Alpha virt. eigenvalues --    0.07240   0.10922   0.90689   0.96397   1.11528
 Alpha virt. eigenvalues --    1.17525   1.27908   1.36821   1.50436   1.57765
 Alpha virt. eigenvalues --    1.63638   1.64772   1.74546   2.10913   3.22364

 Mulliken charges:
               1
     1  O   -0.471634
     2  H    0.235817
     3  H    0.235817
 Sum of Mulliken charges =   0.00000

 Dipole moment (field-independent basis, Debye):
    X=              0.0000    Y=              0.0000    Z=             -2.4910  Tot=              2.4910
 Quadrupole moment (field-independent basis, Debye-Ang):
   XX=             -8.1565   YY=             -3.8368   ZZ=             -5.4346
   XY=              0.0000   XZ=              0.0000   YZ=              0.0000

 Normal termination of Gaussian 09 at Mon Sep 29 16:36:24 2014.
