 Gaussian 09, Revision D.01,
 Gaussian 09:  ES64L-G09RevD.01 24-Apr-2013

 -----------------
 #RHF 6-31G(d',p')
 -----------------

 ------------------
 H2O.r1.30theta82.0
 ------------------
 Symbolic Z-matrix:
 Charge =  0 Multiplicity = 1

                         Standard orientation:
 ---------------------------------------------------------------------
 Center     Atomic      Atomic             Coordinates (Angstroms)
 Number     Number       Type             X           Y           Z
 ---------------------------------------------------------------------
      1          8           0        0.000000    0.000000    0.196224
      2          1           0        0.000000    0.852877   -0.784898
      3          1           0        0.000000   -0.852877   -0.784898
 ---------------------------------------------------------------------

 SCF Done:  E(RHF) =  -75.8809204368     A.U. after   11 cycles

 The electronic state is 1-A1.
 Alpha  occ. eigenvalues --  -20.62466  -1.24398  -0.54311  -0.54042  -0.50027
 Alpha virt. eigenvalues --    0.12642   0.17175   0.92865   0.93592   1.12139
 Alpha virt. eigenvalues --    1.17782   1.27584   1.34727   1.53383   1.61892
 Alpha virt. eigenvalues --    1.64746   1.75135   1.99502   2.04078   3.26553

 Mulliken charges:
               1
     1  O   -0.501371
     2  H    0.250686
     3  H    0.250686
 Sum of Mulliken charges =   0.00000

 Dipole moment (field-independent basis, Debye):
    X=              0.0000    Y=              0.0000    Z=             -2.6597  Tot=              2.6597
 Quadrupole moment (field-independent basis, Debye-Ang):
   XX=             -7.8568   YY=             -4.9665   ZZ=             -5.1337
   XY=              0.0000   XZ=              0.0000   YZ=              0.0000

 Normal termination of Gaussian 09 at Mon Sep 29 16:32:06 2014.
