 Gaussian 09, Revision D.01,
 Gaussian 09:  ES64L-G09RevD.01 24-Apr-2013

 -----------------
 #RHF 6-31G(d',p')
 -----------------

 -------------------
 H2O.r1.25theta136.0
 -------------------
 Symbolic Z-matrix:
 Charge =  0 Multiplicity = 1

                         Standard orientation:
 ---------------------------------------------------------------------
 Center     Atomic      Atomic             Coordinates (Angstroms)
 Number     Number       Type             X           Y           Z
 ---------------------------------------------------------------------
      1          8           0        0.000000    0.000000    0.093652
      2          1           0        0.000000    1.158980   -0.374607
      3          1           0        0.000000   -1.158980   -0.374607
 ---------------------------------------------------------------------

 SCF Done:  E(RHF) =  -75.8811288420     A.U. after   11 cycles

 The electronic state is 1-A1.
 Alpha  occ. eigenvalues --  -20.57166  -1.21651  -0.59412  -0.46733  -0.46623
 Alpha virt. eigenvalues --    0.10139   0.23468   0.89075   0.97871   1.15767
 Alpha virt. eigenvalues --    1.16369   1.31648   1.43498   1.45971   1.70956
 Alpha virt. eigenvalues --    1.72151   1.72495   2.02089   2.10487   3.27001

 Mulliken charges:
               1
     1  O   -0.666222
     2  H    0.333111
     3  H    0.333111
 Sum of Mulliken charges =   0.00000

 Dipole moment (field-independent basis, Debye):
    X=              0.0000    Y=              0.0000    Z=             -1.6347  Tot=              1.6347
 Quadrupole moment (field-independent basis, Debye-Ang):
   XX=             -7.7778   YY=             -1.3337   ZZ=             -7.0901
   XY=              0.0000   XZ=              0.0000   YZ=              0.0000

 Normal termination of Gaussian 09 at Mon Sep 29 16:31:42 2014.
