 Gaussian 09, Revision D.01,
 Gaussian 09:  ES64L-G09RevD.01 24-Apr-2013

 -----------------
 #RHF 6-31G(d',p')
 -----------------

 ------------------
 H2O.r1.85theta90.0
 ------------------
 Symbolic Z-matrix:
 Charge =  0 Multiplicity = 1

                         Standard orientation:
 ---------------------------------------------------------------------
 Center     Atomic      Atomic             Coordinates (Angstroms)
 Number     Number       Type             X           Y           Z
 ---------------------------------------------------------------------
      1          8           0        0.000000    0.000000    0.261630
      2          1           0        0.000000    1.308148   -1.046518
      3          1           0        0.000000   -1.308148   -1.046518
 ---------------------------------------------------------------------

 SCF Done:  E(RHF) =  -75.6218003802     A.U. after   13 cycles

 The electronic state is 1-A1.
 Alpha  occ. eigenvalues --  -20.67089  -1.20265  -0.51132  -0.45288  -0.42580
 Alpha virt. eigenvalues --    0.00168   0.01148   0.93154   1.01010   1.12544
 Alpha virt. eigenvalues --    1.15729   1.18980   1.19977   1.50137   1.52063
 Alpha virt. eigenvalues --    1.52433   1.55829   1.74650   2.04002   3.18104

 Mulliken charges:
               1
     1  O   -0.351609
     2  H    0.175804
     3  H    0.175804
 Sum of Mulliken charges =   0.00000

 Dipole moment (field-independent basis, Debye):
    X=              0.0000    Y=              0.0000    Z=             -2.4540  Tot=              2.4540
 Quadrupole moment (field-independent basis, Debye-Ang):
   XX=             -8.4767   YY=             -3.6103   ZZ=             -4.8394
   XY=              0.0000   XZ=              0.0000   YZ=              0.0000

 Normal termination of Gaussian 09 at Mon Sep 29 16:43:25 2014.
