 Gaussian 09, Revision D.01,
 Gaussian 09:  ES64L-G09RevD.01 24-Apr-2013

 -----------------
 #RHF 6-31G(d',p')
 -----------------

 ------------------
 H2O.r0.70theta74.0
 ------------------
 Symbolic Z-matrix:
 Charge =  0 Multiplicity = 1

                         Standard orientation:
 ---------------------------------------------------------------------
 Center     Atomic      Atomic             Coordinates (Angstroms)
 Number     Number       Type             X           Y           Z
 ---------------------------------------------------------------------
      1          8           0        0.000000    0.000000    0.111809
      2          1           0        0.000000    0.421271   -0.447236
      3          1           0        0.000000   -0.421271   -0.447236
 ---------------------------------------------------------------------

 SCF Done:  E(RHF) =  -75.7219303888     A.U. after    9 cycles

 The electronic state is 1-A1.
 Alpha  occ. eigenvalues --  -20.51464  -1.58633  -0.75586  -0.68434  -0.53324
 Alpha virt. eigenvalues --    0.23515   0.36394   0.99181   1.08257   1.10392
 Alpha virt. eigenvalues --    1.30587   1.39075   1.51346   1.65816   1.76914
 Alpha virt. eigenvalues --    1.79043   2.57106   3.14259   3.47450   3.73050

 Mulliken charges:
               1
     1  O   -0.374409
     2  H    0.187205
     3  H    0.187205
 Sum of Mulliken charges =   0.00000

 Dipole moment (field-independent basis, Debye):
    X=              0.0000    Y=              0.0000    Z=             -2.2376  Tot=              2.2376
 Quadrupole moment (field-independent basis, Debye-Ang):
   XX=             -6.4811   YY=             -5.3395   ZZ=             -5.1891
   XY=              0.0000   XZ=              0.0000   YZ=              0.0000

 Normal termination of Gaussian 09 at Mon Sep 29 16:19:35 2014.
