 Gaussian 09, Revision D.01,
 Gaussian 09:  ES64L-G09RevD.01 24-Apr-2013

 -----------------
 #RHF 6-31G(d',p')
 -----------------

 ------------------
 H2O.r0.90theta76.0
 ------------------
 Symbolic Z-matrix:
 Charge =  0 Multiplicity = 1

                         Standard orientation:
 ---------------------------------------------------------------------
 Center     Atomic      Atomic             Coordinates (Angstroms)
 Number     Number       Type             X           Y           Z
 ---------------------------------------------------------------------
      1          8           0        0.000000    0.000000    0.141842
      2          1           0        0.000000    0.554095   -0.567368
      3          1           0        0.000000   -0.554095   -0.567368
 ---------------------------------------------------------------------

 SCF Done:  E(RHF) =  -75.9895406681     A.U. after   10 cycles

 The electronic state is 1-A1.
 Alpha  occ. eigenvalues --  -20.55691  -1.40452  -0.66411  -0.64150  -0.51058
 Alpha virt. eigenvalues --    0.21141   0.32196   0.95606   1.07101   1.16102
 Alpha virt. eigenvalues --    1.21501   1.28393   1.34536   1.53223   1.66424
 Alpha virt. eigenvalues --    1.67210   2.21831   2.66431   2.75437   3.50929

 Mulliken charges:
               1
     1  O   -0.455044
     2  H    0.227522
     3  H    0.227522
 Sum of Mulliken charges =   0.00000

 Dipole moment (field-independent basis, Debye):
    X=              0.0000    Y=              0.0000    Z=             -2.4979  Tot=              2.4979
 Quadrupole moment (field-independent basis, Debye-Ang):
   XX=             -6.9720   YY=             -5.4036   ZZ=             -5.2466
   XY=              0.0000   XZ=              0.0000   YZ=              0.0000

 Normal termination of Gaussian 09 at Mon Sep 29 16:24:04 2014.
