 Gaussian 09, Revision D.01,
 Gaussian 09:  ES64L-G09RevD.01 24-Apr-2013

 -----------------
 #RHF 6-31G(d',p')
 -----------------

 -------------------
 H2O.r1.90theta145.0
 -------------------
 Symbolic Z-matrix:
 Charge =  0 Multiplicity = 1

                         Standard orientation:
 ---------------------------------------------------------------------
 Center     Atomic      Atomic             Coordinates (Angstroms)
 Number     Number       Type             X           Y           Z
 ---------------------------------------------------------------------
      1          8           0        0.000000    0.000000    0.114268
      2          1           0        0.000000    1.812062   -0.457073
      3          1           0        0.000000   -1.812062   -0.457073
 ---------------------------------------------------------------------

 SCF Done:  E(RHF) =  -75.5721671456     A.U. after   14 cycles

 The electronic state is 1-A1.
 Alpha  occ. eigenvalues --  -20.62461  -1.16925  -0.47838  -0.42098  -0.41084
 Alpha virt. eigenvalues --   -0.07539   0.07206   0.96034   0.97046   1.15209
 Alpha virt. eigenvalues --    1.15447   1.18288   1.21239   1.48828   1.48871
 Alpha virt. eigenvalues --    1.53230   1.54349   1.79757   1.97778   3.21709

 Mulliken charges:
               1
     1  O   -0.437084
     2  H    0.218542
     3  H    0.218542
 Sum of Mulliken charges =   0.00000

 Dipole moment (field-independent basis, Debye):
    X=              0.0000    Y=              0.0000    Z=             -1.2246  Tot=              1.2246
 Quadrupole moment (field-independent basis, Debye-Ang):
   XX=             -8.4774   YY=              1.7853   ZZ=             -7.6603
   XY=              0.0000   XZ=              0.0000   YZ=              0.0000

 Normal termination of Gaussian 09 at Mon Sep 29 16:45:03 2014.
