 Gaussian 09, Revision D.01,
 Gaussian 09:  ES64L-G09RevD.01 24-Apr-2013

 -----------------
 #RHF 6-31G(d',p')
 -----------------

 -------------------
 H2O.r1.05theta139.0
 -------------------
 Symbolic Z-matrix:
 Charge =  0 Multiplicity = 1

                         Standard orientation:
 ---------------------------------------------------------------------
 Center     Atomic      Atomic             Coordinates (Angstroms)
 Number     Number       Type             X           Y           Z
 ---------------------------------------------------------------------
      1          8           0        0.000000    0.000000    0.073544
      2          1           0        0.000000    0.983506   -0.294174
      3          1           0        0.000000   -0.983506   -0.294174
 ---------------------------------------------------------------------

 SCF Done:  E(RHF) =  -75.9750224790     A.U. after   10 cycles

 The electronic state is 1-A1.
 Alpha  occ. eigenvalues --  -20.54311  -1.27134  -0.69231  -0.48831  -0.47135
 Alpha virt. eigenvalues --    0.17331   0.28795   0.88906   1.06283   1.17312
 Alpha virt. eigenvalues --    1.18094   1.27420   1.44262   1.45356   1.79924
 Alpha virt. eigenvalues --    1.80411   1.82602   2.28135   2.45954   3.30360

 Mulliken charges:
               1
     1  O   -0.676614
     2  H    0.338307
     3  H    0.338307
 Sum of Mulliken charges =   0.00000

 Dipole moment (field-independent basis, Debye):
    X=              0.0000    Y=              0.0000    Z=             -1.5114  Tot=              1.5114
 Quadrupole moment (field-independent basis, Debye-Ang):
   XX=             -7.3745   YY=             -2.1481   ZZ=             -6.9330
   XY=              0.0000   XZ=              0.0000   YZ=              0.0000

 Normal termination of Gaussian 09 at Mon Sep 29 16:27:45 2014.
