 Gaussian 09, Revision D.01,
 Gaussian 09:  ES64L-G09RevD.01 24-Apr-2013

 -----------------
 #RHF 6-31G(d',p')
 -----------------

 -------------------
 H2O.r1.50theta145.0
 -------------------
 Symbolic Z-matrix:
 Charge =  0 Multiplicity = 1

                         Standard orientation:
 ---------------------------------------------------------------------
 Center     Atomic      Atomic             Coordinates (Angstroms)
 Number     Number       Type             X           Y           Z
 ---------------------------------------------------------------------
      1          8           0        0.000000    0.000000    0.090212
      2          1           0        0.000000    1.430575   -0.360847
      3          1           0        0.000000   -1.430575   -0.360847
 ---------------------------------------------------------------------

 SCF Done:  E(RHF) =  -75.7368260694     A.U. after   12 cycles

 The electronic state is 1-A1.
 Alpha  occ. eigenvalues --  -20.59100  -1.17817  -0.50760  -0.46292  -0.43227
 Alpha virt. eigenvalues --    0.01064   0.16575   0.92063   0.93504   1.14150
 Alpha virt. eigenvalues --    1.16264   1.34341   1.41480   1.48253   1.53913
 Alpha virt. eigenvalues --    1.61357   1.64980   1.84806   2.06191   3.24716

 Mulliken charges:
               1
     1  O   -0.612828
     2  H    0.306414
     3  H    0.306414
 Sum of Mulliken charges =   0.00000

 Dipole moment (field-independent basis, Debye):
    X=              0.0000    Y=              0.0000    Z=             -1.3159  Tot=              1.3159
 Quadrupole moment (field-independent basis, Debye-Ang):
   XX=             -8.1556   YY=              0.3464   ZZ=             -7.5145
   XY=              0.0000   XZ=              0.0000   YZ=              0.0000

 Normal termination of Gaussian 09 at Mon Sep 29 16:37:00 2014.
