 Gaussian 09, Revision D.01,
 Gaussian 09:  ES64L-G09RevD.01 24-Apr-2013

 -----------------
 #RHF 6-31G(d',p')
 -----------------

 ------------------
 H2O.r0.95theta84.0
 ------------------
 Symbolic Z-matrix:
 Charge =  0 Multiplicity = 1

                         Standard orientation:
 ---------------------------------------------------------------------
 Center     Atomic      Atomic             Coordinates (Angstroms)
 Number     Number       Type             X           Y           Z
 ---------------------------------------------------------------------
      1          8           0        0.000000    0.000000    0.141198
      2          1           0        0.000000    0.635674   -0.564790
      3          1           0        0.000000   -0.635674   -0.564790
 ---------------------------------------------------------------------

 SCF Done:  E(RHF) =  -76.0108627913     A.U. after   10 cycles

 The electronic state is 1-A1.
 Alpha  occ. eigenvalues --  -20.56485  -1.36333  -0.66308  -0.61356  -0.50478
 Alpha virt. eigenvalues --    0.20783   0.30623   0.95645   1.05515   1.16406
 Alpha virt. eigenvalues --    1.23428   1.27000   1.30522   1.58468   1.60637
 Alpha virt. eigenvalues --    1.64342   2.10565   2.53190   2.59261   3.48741

 Mulliken charges:
               1
     1  O   -0.478682
     2  H    0.239341
     3  H    0.239341
 Sum of Mulliken charges =   0.00000

 Dipole moment (field-independent basis, Debye):
    X=              0.0000    Y=              0.0000    Z=             -2.4523  Tot=              2.4523
 Quadrupole moment (field-independent basis, Debye-Ang):
   XX=             -7.0978   YY=             -5.0728   ZZ=             -5.4387
   XY=              0.0000   XZ=              0.0000   YZ=              0.0000

 Normal termination of Gaussian 09 at Mon Sep 29 16:25:09 2014.
