 Gaussian 09, Revision D.01,
 Gaussian 09:  ES64L-G09RevD.01 24-Apr-2013

 -----------------
 #RHF 6-31G(d',p')
 -----------------

 -------------------
 H2O.r1.35theta123.0
 -------------------
 Symbolic Z-matrix:
 Charge =  0 Multiplicity = 1

                         Standard orientation:
 ---------------------------------------------------------------------
 Center     Atomic      Atomic             Coordinates (Angstroms)
 Number     Number       Type             X           Y           Z
 ---------------------------------------------------------------------
      1          8           0        0.000000    0.000000    0.128833
      2          1           0        0.000000    1.186403   -0.515331
      3          1           0        0.000000   -1.186403   -0.515331
 ---------------------------------------------------------------------

 SCF Done:  E(RHF) =  -75.8432962144     A.U. after   11 cycles

 The electronic state is 1-A1.
 Alpha  occ. eigenvalues --  -20.60219  -1.21230  -0.55496  -0.47941  -0.47549
 Alpha virt. eigenvalues --    0.08568   0.19046   0.90222   0.96541   1.13753
 Alpha virt. eigenvalues --    1.16054   1.31040   1.41446   1.47872   1.66195
 Alpha virt. eigenvalues --    1.66262   1.69007   1.93350   2.01897   3.25409

 Mulliken charges:
               1
     1  O   -0.585954
     2  H    0.292977
     3  H    0.292977
 Sum of Mulliken charges =   0.00000

 Dipole moment (field-independent basis, Debye):
    X=              0.0000    Y=              0.0000    Z=             -1.9370  Tot=              1.9370
 Quadrupole moment (field-independent basis, Debye-Ang):
   XX=             -7.9408   YY=             -1.9199   ZZ=             -6.7231
   XY=              0.0000   XZ=              0.0000   YZ=              0.0000

 Normal termination of Gaussian 09 at Mon Sep 29 16:33:36 2014.
