 Gaussian 09, Revision D.01,
 Gaussian 09:  ES64L-G09RevD.01 24-Apr-2013

 -----------------
 #RHF 6-31G(d',p')
 -----------------

 -------------------
 H2O.r1.25theta158.0
 -------------------
 Symbolic Z-matrix:
 Charge =  0 Multiplicity = 1

                         Standard orientation:
 ---------------------------------------------------------------------
 Center     Atomic      Atomic             Coordinates (Angstroms)
 Number     Number       Type             X           Y           Z
 ---------------------------------------------------------------------
      1          8           0        0.000000    0.000000    0.047702
      2          1           0        0.000000    1.227034   -0.190809
      3          1           0        0.000000   -1.227034   -0.190809
 ---------------------------------------------------------------------

 SCF Done:  E(RHF) =  -75.8482426792     A.U. after   11 cycles

 The electronic state is 1-A1.
 Alpha  occ. eigenvalues --  -20.53417  -1.19083  -0.58942  -0.43982  -0.43543
 Alpha virt. eigenvalues --    0.07170   0.25124   0.87459   0.96520   1.17694
 Alpha virt. eigenvalues --    1.17934   1.40433   1.44865   1.45311   1.70697
 Alpha virt. eigenvalues --    1.72531   1.73169   1.91649   2.27677   3.27308

 Mulliken charges:
               1
     1  O   -0.792915
     2  H    0.396457
     3  H    0.396457
 Sum of Mulliken charges =   0.00000

 Dipole moment (field-independent basis, Debye):
    X=              0.0000    Y=              0.0000    Z=             -0.9604  Tot=              0.9604
 Quadrupole moment (field-independent basis, Debye-Ang):
   XX=             -7.7927   YY=              0.2221   ZZ=             -7.5944
   XY=              0.0000   XZ=              0.0000   YZ=              0.0000

 Normal termination of Gaussian 09 at Mon Sep 29 16:31:56 2014.
