 Gaussian 09, Revision D.01,
 Gaussian 09:  ES64L-G09RevD.01 24-Apr-2013

 -----------------
 #RHF 6-31G(d',p')
 -----------------

 ------------------
 H2O.r1.55theta94.0
 ------------------
 Symbolic Z-matrix:
 Charge =  0 Multiplicity = 1

                         Standard orientation:
 ---------------------------------------------------------------------
 Center     Atomic      Atomic             Coordinates (Angstroms)
 Number     Number       Type             X           Y           Z
 ---------------------------------------------------------------------
      1          8           0        0.000000    0.000000    0.211419
      2          1           0        0.000000    1.133598   -0.845678
      3          1           0        0.000000   -1.133598   -0.845678
 ---------------------------------------------------------------------

 SCF Done:  E(RHF) =  -75.7550959672     A.U. after   11 cycles

 The electronic state is 1-A1.
 Alpha  occ. eigenvalues --  -20.64867  -1.21128  -0.50191  -0.49195  -0.47962
 Alpha virt. eigenvalues --    0.06055   0.09298   0.90837   0.96996   1.11478
 Alpha virt. eigenvalues --    1.17651   1.27476   1.34006   1.50468   1.56413
 Alpha virt. eigenvalues --    1.61625   1.62638   1.74257   2.11783   3.21562

 Mulliken charges:
               1
     1  O   -0.454976
     2  H    0.227488
     3  H    0.227488
 Sum of Mulliken charges =   0.00000

 Dipole moment (field-independent basis, Debye):
    X=              0.0000    Y=              0.0000    Z=             -2.4836  Tot=              2.4836
 Quadrupole moment (field-independent basis, Debye-Ang):
   XX=             -8.2159   YY=             -3.7510   ZZ=             -5.3860
   XY=              0.0000   XZ=              0.0000   YZ=              0.0000

 Normal termination of Gaussian 09 at Mon Sep 29 16:37:26 2014.
