 Gaussian 09, Revision D.01,
 Gaussian 09:  ES64L-G09RevD.01 24-Apr-2013

 -----------------
 #RHF 6-31G(d',p')
 -----------------

 -------------------
 H2O.r1.40theta152.0
 -------------------
 Symbolic Z-matrix:
 Charge =  0 Multiplicity = 1

                         Standard orientation:
 ---------------------------------------------------------------------
 Center     Atomic      Atomic             Coordinates (Angstroms)
 Number     Number       Type             X           Y           Z
 ---------------------------------------------------------------------
      1          8           0        0.000000    0.000000    0.067738
      2          1           0        0.000000    1.358414   -0.270953
      3          1           0        0.000000   -1.358414   -0.270953
 ---------------------------------------------------------------------

 SCF Done:  E(RHF) =  -75.7760512901     A.U. after   12 cycles

 The electronic state is 1-A1.
 Alpha  occ. eigenvalues --  -20.56336  -1.17592  -0.53439  -0.44867  -0.43058
 Alpha virt. eigenvalues --    0.02776   0.20431   0.90235   0.93624   1.15489
 Alpha virt. eigenvalues --    1.16602   1.40248   1.42236   1.46908   1.60899
 Alpha virt. eigenvalues --    1.65164   1.68023   1.83609   2.13784   3.26243

 Mulliken charges:
               1
     1  O   -0.703313
     2  H    0.351656
     3  H    0.351656
 Sum of Mulliken charges =   0.00000

 Dipole moment (field-independent basis, Debye):
    X=              0.0000    Y=              0.0000    Z=             -1.1402  Tot=              1.1402
 Quadrupole moment (field-independent basis, Debye-Ang):
   XX=             -8.0288   YY=              0.5756   ZZ=             -7.6358
   XY=              0.0000   XZ=              0.0000   YZ=              0.0000

 Normal termination of Gaussian 09 at Mon Sep 29 16:35:02 2014.
