 Gaussian 09, Revision D.01,
 Gaussian 09:  ES64L-G09RevD.01 24-Apr-2013

 -----------------
 #RHF 6-31G(d',p')
 -----------------

 -------------------
 H2O.r1.30theta101.0
 -------------------
 Symbolic Z-matrix:
 Charge =  0 Multiplicity = 1

                         Standard orientation:
 ---------------------------------------------------------------------
 Center     Atomic      Atomic             Coordinates (Angstroms)
 Number     Number       Type             X           Y           Z
 ---------------------------------------------------------------------
      1          8           0        0.000000    0.000000    0.165380
      2          1           0        0.000000    1.003112   -0.661521
      3          1           0        0.000000   -1.003112   -0.661521
 ---------------------------------------------------------------------

 SCF Done:  E(RHF) =  -75.8846566628     A.U. after   11 cycles

 The electronic state is 1-A1.
 Alpha  occ. eigenvalues --  -20.61501  -1.23418  -0.55834  -0.51516  -0.49244
 Alpha virt. eigenvalues --    0.12167   0.18691   0.91227   0.95517   1.13140
 Alpha virt. eigenvalues --    1.16720   1.27177   1.42274   1.49344   1.67659
 Alpha virt. eigenvalues --    1.68653   1.73245   1.89446   2.08530   3.27920

 Mulliken charges:
               1
     1  O   -0.540470
     2  H    0.270235
     3  H    0.270235
 Sum of Mulliken charges =   0.00000

 Dipole moment (field-independent basis, Debye):
    X=              0.0000    Y=              0.0000    Z=             -2.3827  Tot=              2.3827
 Quadrupole moment (field-independent basis, Debye-Ang):
   XX=             -7.8560   YY=             -3.6683   ZZ=             -5.8793
   XY=              0.0000   XZ=              0.0000   YZ=              0.0000

 Normal termination of Gaussian 09 at Mon Sep 29 16:32:18 2014.
