 Gaussian 09, Revision D.01,
 Gaussian 09:  ES64L-G09RevD.01 24-Apr-2013

 -----------------
 #RHF 6-31G(d',p')
 -----------------

 -------------------
 H2O.r1.50theta132.0
 -------------------
 Symbolic Z-matrix:
 Charge =  0 Multiplicity = 1

                         Standard orientation:
 ---------------------------------------------------------------------
 Center     Atomic      Atomic             Coordinates (Angstroms)
 Number     Number       Type             X           Y           Z
 ---------------------------------------------------------------------
      1          8           0        0.000000    0.000000    0.122021
      2          1           0        0.000000    1.370318   -0.488084
      3          1           0        0.000000   -1.370318   -0.488084
 ---------------------------------------------------------------------

 SCF Done:  E(RHF) =  -75.7548244124     A.U. after   12 cycles

 The electronic state is 1-A1.
 Alpha  occ. eigenvalues --  -20.61106  -1.19152  -0.51115  -0.47703  -0.44737
 Alpha virt. eigenvalues --    0.03034   0.15098   0.91740   0.94899   1.13233
 Alpha virt. eigenvalues --    1.16313   1.34463   1.37561   1.48859   1.55179
 Alpha virt. eigenvalues --    1.60295   1.65040   1.92372   1.95232   3.23600

 Mulliken charges:
               1
     1  O   -0.558566
     2  H    0.279283
     3  H    0.279283
 Sum of Mulliken charges =   0.00000

 Dipole moment (field-independent basis, Debye):
    X=              0.0000    Y=              0.0000    Z=             -1.6759  Tot=              1.6759
 Quadrupole moment (field-independent basis, Debye-Ang):
   XX=             -8.1516   YY=             -0.7414   ZZ=             -7.0847
   XY=              0.0000   XZ=              0.0000   YZ=              0.0000

 Normal termination of Gaussian 09 at Mon Sep 29 16:36:51 2014.
