 Gaussian 09, Revision D.01,
 Gaussian 09:  ES64L-G09RevD.01 24-Apr-2013

 -----------------
 #RHF 6-31G(d',p')
 -----------------

 -------------------
 H2O.r0.80theta155.0
 -------------------
 Symbolic Z-matrix:
 Charge =  0 Multiplicity = 1

                         Standard orientation:
 ---------------------------------------------------------------------
 Center     Atomic      Atomic             Coordinates (Angstroms)
 Number     Number       Type             X           Y           Z
 ---------------------------------------------------------------------
      1          8           0        0.000000    0.000000    0.034630
      2          1           0        0.000000    0.781037   -0.138521
      3          1           0        0.000000   -0.781037   -0.138521
 ---------------------------------------------------------------------

 SCF Done:  E(RHF) =  -75.9306106551     A.U. after    9 cycles

 The electronic state is 1-A1.
 Alpha  occ. eigenvalues --  -20.50454  -1.39410  -0.88243  -0.50888  -0.49786
 Alpha virt. eigenvalues --    0.25195   0.32122   0.93145   1.15249   1.15682
 Alpha virt. eigenvalues --    1.27852   1.35707   1.45094   1.49878   1.93877
 Alpha virt. eigenvalues --    2.04758   2.05458   2.83953   3.27212   3.28649

 Mulliken charges:
               1
     1  O   -0.549264
     2  H    0.274632
     3  H    0.274632
 Sum of Mulliken charges =   0.00000

 Dipole moment (field-independent basis, Debye):
    X=              0.0000    Y=              0.0000    Z=             -0.8693  Tot=              0.8693
 Quadrupole moment (field-independent basis, Debye-Ang):
   XX=             -6.7658   YY=             -3.1189   ZZ=             -6.6567
   XY=              0.0000   XZ=              0.0000   YZ=              0.0000

 Normal termination of Gaussian 09 at Mon Sep 29 16:22:48 2014.
