 Gaussian 09, Revision D.01,
 Gaussian 09:  ES64L-G09RevD.01 24-Apr-2013

 -----------------
 #RHF 6-31G(d',p')
 -----------------

 -------------------
 H2O.r1.10theta102.0
 -------------------
 Symbolic Z-matrix:
 Charge =  0 Multiplicity = 1

                         Standard orientation:
 ---------------------------------------------------------------------
 Center     Atomic      Atomic             Coordinates (Angstroms)
 Number     Number       Type             X           Y           Z
 ---------------------------------------------------------------------
      1          8           0        0.000000    0.000000    0.138450
      2          1           0        0.000000    0.854861   -0.553802
      3          1           0        0.000000   -0.854861   -0.553802
 ---------------------------------------------------------------------

 SCF Done:  E(RHF) =  -75.9846439458     A.U. after   10 cycles

 The electronic state is 1-A1.
 Alpha  occ. eigenvalues --  -20.58382  -1.28231  -0.63196  -0.54847  -0.49203
 Alpha virt. eigenvalues --    0.17817   0.26056   0.95656   0.96609   1.15763
 Alpha virt. eigenvalues --    1.16818   1.25405   1.41476   1.49775   1.69236
 Alpha virt. eigenvalues --    1.72187   1.85222   2.20601   2.25216   3.39020

 Mulliken charges:
               1
     1  O   -0.553681
     2  H    0.276841
     3  H    0.276841
 Sum of Mulliken charges =   0.00000

 Dipole moment (field-independent basis, Debye):
    X=              0.0000    Y=              0.0000    Z=             -2.3135  Tot=              2.3135
 Quadrupole moment (field-independent basis, Debye-Ang):
   XX=             -7.4594   YY=             -3.9946   ZZ=             -5.9575
   XY=              0.0000   XZ=              0.0000   YZ=              0.0000

 Normal termination of Gaussian 09 at Mon Sep 29 16:28:21 2014.
