 Gaussian 09, Revision D.01,
 Gaussian 09:  ES64L-G09RevD.01 24-Apr-2013

 -----------------
 #RHF 6-31G(d',p')
 -----------------

 ------------------
 H2O.r1.15theta98.0
 ------------------
 Symbolic Z-matrix:
 Charge =  0 Multiplicity = 1

                         Standard orientation:
 ---------------------------------------------------------------------
 Center     Atomic      Atomic             Coordinates (Angstroms)
 Number     Number       Type             X           Y           Z
 ---------------------------------------------------------------------
      1          8           0        0.000000    0.000000    0.150894
      2          1           0        0.000000    0.867916   -0.603574
      3          1           0        0.000000   -0.867916   -0.603574
 ---------------------------------------------------------------------

 SCF Done:  E(RHF) =  -75.9621810466     A.U. after   10 cycles

 The electronic state is 1-A1.
 Alpha  occ. eigenvalues --  -20.59459  -1.26940  -0.60653  -0.54687  -0.49317
 Alpha virt. eigenvalues --    0.16532   0.24048   0.94597   0.95332   1.14917
 Alpha virt. eigenvalues --    1.16989   1.25961   1.40752   1.50311   1.67545
 Alpha virt. eigenvalues --    1.70878   1.82741   2.12025   2.18173   3.36454

 Mulliken charges:
               1
     1  O   -0.546757
     2  H    0.273379
     3  H    0.273379
 Sum of Mulliken charges =   0.00000

 Dipole moment (field-independent basis, Debye):
    X=              0.0000    Y=              0.0000    Z=             -2.3991  Tot=              2.3991
 Quadrupole moment (field-independent basis, Debye-Ang):
   XX=             -7.5660   YY=             -4.1404   ZZ=             -5.8205
   XY=              0.0000   XZ=              0.0000   YZ=              0.0000

 Normal termination of Gaussian 09 at Mon Sep 29 16:29:17 2014.
