 Gaussian 09, Revision D.01,
 Gaussian 09:  ES64L-G09RevD.01 24-Apr-2013

 -----------------
 #RHF 6-31G(d',p')
 -----------------

 -------------------
 H2O.r1.75theta135.0
 -------------------
 Symbolic Z-matrix:
 Charge =  0 Multiplicity = 1

                         Standard orientation:
 ---------------------------------------------------------------------
 Center     Atomic      Atomic             Coordinates (Angstroms)
 Number     Number       Type             X           Y           Z
 ---------------------------------------------------------------------
      1          8           0        0.000000    0.000000    0.133939
      2          1           0        0.000000    1.616789   -0.535757
      3          1           0        0.000000   -1.616789   -0.535757
 ---------------------------------------------------------------------

 SCF Done:  E(RHF) =  -75.6385134653     A.U. after   13 cycles

 The electronic state is 1-A1.
 Alpha  occ. eigenvalues --  -20.63290  -1.18135  -0.48493  -0.45082  -0.42590
 Alpha virt. eigenvalues --   -0.03075   0.08547   0.95500   0.95500   1.13611
 Alpha virt. eigenvalues --    1.17486   1.20009   1.28294   1.49576   1.49577
 Alpha virt. eigenvalues --    1.55573   1.58120   1.87982   1.97703   3.21626

 Mulliken charges:
               1
     1  O   -0.460130
     2  H    0.230065
     3  H    0.230065
 Sum of Mulliken charges =   0.00000

 Dipole moment (field-independent basis, Debye):
    X=              0.0000    Y=              0.0000    Z=             -1.5199  Tot=              1.5199
 Quadrupole moment (field-independent basis, Debye-Ang):
   XX=             -8.3873   YY=              0.2980   ZZ=             -7.2259
   XY=              0.0000   XZ=              0.0000   YZ=              0.0000

 Normal termination of Gaussian 09 at Mon Sep 29 16:41:55 2014.
