 Gaussian 09, Revision D.01,
 Gaussian 09:  ES64L-G09RevD.01 24-Apr-2013

 -----------------
 #RHF 6-31G(d',p')
 -----------------

 -------------------
 H2O.r0.90theta151.0
 -------------------
 Symbolic Z-matrix:
 Charge =  0 Multiplicity = 1

                         Standard orientation:
 ---------------------------------------------------------------------
 Center     Atomic      Atomic             Coordinates (Angstroms)
 Number     Number       Type             X           Y           Z
 ---------------------------------------------------------------------
      1          8           0        0.000000    0.000000    0.045068
      2          1           0        0.000000    0.871333   -0.180274
      3          1           0        0.000000   -0.871333   -0.180274
 ---------------------------------------------------------------------

 SCF Done:  E(RHF) =  -75.9857704787     A.U. after   10 cycles

 The electronic state is 1-A1.
 Alpha  occ. eigenvalues --  -20.51705  -1.33439  -0.79831  -0.49490  -0.48225
 Alpha virt. eigenvalues --    0.22257   0.31180   0.89151   1.17335   1.17945
 Alpha virt. eigenvalues --    1.18578   1.32220   1.43912   1.48002   1.86900
 Alpha virt. eigenvalues --    1.93123   1.93430   2.55009   2.94145   3.28479

 Mulliken charges:
               1
     1  O   -0.638773
     2  H    0.319386
     3  H    0.319386
 Sum of Mulliken charges =   0.00000

 Dipole moment (field-independent basis, Debye):
    X=              0.0000    Y=              0.0000    Z=             -1.0625  Tot=              1.0625
 Quadrupole moment (field-independent basis, Debye-Ang):
   XX=             -7.0273   YY=             -2.6013   ZZ=             -6.8538
   XY=              0.0000   XZ=              0.0000   YZ=              0.0000

 Normal termination of Gaussian 09 at Mon Sep 29 16:24:53 2014.
