 Gaussian 09, Revision D.01,
 Gaussian 09:  ES64L-G09RevD.01 24-Apr-2013

 -----------------
 #RHF 6-31G(d',p')
 -----------------

 -------------------
 H2O.r0.90theta109.0
 -------------------
 Symbolic Z-matrix:
 Charge =  0 Multiplicity = 1

                         Standard orientation:
 ---------------------------------------------------------------------
 Center     Atomic      Atomic             Coordinates (Angstroms)
 Number     Number       Type             X           Y           Z
 ---------------------------------------------------------------------
      1          8           0        0.000000    0.000000    0.104527
      2          1           0        0.000000    0.732704   -0.418106
      3          1           0        0.000000   -0.732704   -0.418106
 ---------------------------------------------------------------------

 SCF Done:  E(RHF) =  -76.0201988946     A.U. after   10 cycles

 The electronic state is 1-A1.
 Alpha  occ. eigenvalues --  -20.54309  -1.36740  -0.74515  -0.56956  -0.49961
 Alpha virt. eigenvalues --    0.22598   0.31805   1.03918   1.04194   1.16716
 Alpha virt. eigenvalues --    1.16892   1.26445   1.43457   1.51668   1.75231
 Alpha virt. eigenvalues --    1.76380   2.02221   2.65531   2.65944   3.52561

 Mulliken charges:
               1
     1  O   -0.509913
     2  H    0.254957
     3  H    0.254957
 Sum of Mulliken charges =   0.00000

 Dipole moment (field-independent basis, Debye):
    X=              0.0000    Y=              0.0000    Z=             -2.0431  Tot=              2.0431
 Quadrupole moment (field-independent basis, Debye-Ang):
   XX=             -6.9877   YY=             -4.0772   ZZ=             -6.0574
   XY=              0.0000   XZ=              0.0000   YZ=              0.0000

 Normal termination of Gaussian 09 at Mon Sep 29 16:24:26 2014.
