 Gaussian 09, Revision D.01,
 Gaussian 09:  ES64L-G09RevD.01 24-Apr-2013

 -----------------
 #RHF 6-31G(d',p')
 -----------------

 -------------------
 H2O.r0.70theta138.0
 -------------------
 Symbolic Z-matrix:
 Charge =  0 Multiplicity = 1

                         Standard orientation:
 ---------------------------------------------------------------------
 Center     Atomic      Atomic             Coordinates (Angstroms)
 Number     Number       Type             X           Y           Z
 ---------------------------------------------------------------------
      1          8           0        0.000000    0.000000    0.050172
      2          1           0        0.000000    0.653506   -0.200686
      3          1           0        0.000000   -0.653506   -0.200686
 ---------------------------------------------------------------------

 SCF Done:  E(RHF) =  -75.7729009289     A.U. after    9 cycles

 The electronic state is 1-A1.
 Alpha  occ. eigenvalues --  -20.49674  -1.47734  -0.95212  -0.55128  -0.51848
 Alpha virt. eigenvalues --    0.26693   0.33343   1.08530   1.11106   1.11571
 Alpha virt. eigenvalues --    1.26889   1.37613   1.50825   1.51378   2.08313
 Alpha virt. eigenvalues --    2.11664   2.12031   3.22186   3.42648   3.54388

 Mulliken charges:
               1
     1  O   -0.395719
     2  H    0.197860
     3  H    0.197860
 Sum of Mulliken charges =   0.00000

 Dipole moment (field-independent basis, Debye):
    X=              0.0000    Y=              0.0000    Z=             -1.2589  Tot=              1.2589
 Quadrupole moment (field-independent basis, Debye-Ang):
   XX=             -6.4750   YY=             -3.8412   ZZ=             -6.2175
   XY=              0.0000   XZ=              0.0000   YZ=              0.0000

 Normal termination of Gaussian 09 at Mon Sep 29 16:20:19 2014.
