 Gaussian 09, Revision D.01,
 Gaussian 09:  ES64L-G09RevD.01 24-Apr-2013

 -----------------
 #RHF 6-31G(d',p')
 -----------------

 ------------------
 H2O.r0.95theta89.0
 ------------------
 Symbolic Z-matrix:
 Charge =  0 Multiplicity = 1

                         Standard orientation:
 ---------------------------------------------------------------------
 Center     Atomic      Atomic             Coordinates (Angstroms)
 Number     Number       Type             X           Y           Z
 ---------------------------------------------------------------------
      1          8           0        0.000000    0.000000    0.135518
      2          1           0        0.000000    0.665864   -0.542070
      3          1           0        0.000000   -0.665864   -0.542070
 ---------------------------------------------------------------------

 SCF Done:  E(RHF) =  -76.0166319924     A.U. after   10 cycles

 The electronic state is 1-A1.
 Alpha  occ. eigenvalues --  -20.56287  -1.35815  -0.67497  -0.60275  -0.50314
 Alpha virt. eigenvalues --    0.21024   0.30631   0.96514   1.05207   1.16507
 Alpha virt. eigenvalues --    1.21870   1.26711   1.33594   1.58075   1.62119
 Alpha virt. eigenvalues --    1.64886   2.07977   2.51544   2.57774   3.50378

 Mulliken charges:
               1
     1  O   -0.486527
     2  H    0.243263
     3  H    0.243263
 Sum of Mulliken charges =   0.00000

 Dipole moment (field-independent basis, Debye):
    X=              0.0000    Y=              0.0000    Z=             -2.3873  Tot=              2.3873
 Quadrupole moment (field-independent basis, Debye-Ang):
   XX=             -7.1001   YY=             -4.8534   ZZ=             -5.5728
   XY=              0.0000   XZ=              0.0000   YZ=              0.0000

 Normal termination of Gaussian 09 at Mon Sep 29 16:25:12 2014.
