 Gaussian 09, Revision D.01,
 Gaussian 09:  ES64L-G09RevD.01 24-Apr-2013

 -----------------
 #RHF 6-31G(d',p')
 -----------------

 ------------------
 H2O.r1.40theta95.0
 ------------------
 Symbolic Z-matrix:
 Charge =  0 Multiplicity = 1

                         Standard orientation:
 ---------------------------------------------------------------------
 Center     Atomic      Atomic             Coordinates (Angstroms)
 Number     Number       Type             X           Y           Z
 ---------------------------------------------------------------------
      1          8           0        0.000000    0.000000    0.189165
      2          1           0        0.000000    1.032188   -0.756661
      3          1           0        0.000000   -1.032188   -0.756661
 ---------------------------------------------------------------------

 SCF Done:  E(RHF) =  -75.8318667475     A.U. after   11 cycles

 The electronic state is 1-A1.
 Alpha  occ. eigenvalues --  -20.63177  -1.22355  -0.52590  -0.50555  -0.49740
 Alpha virt. eigenvalues --    0.09730   0.14476   0.90777   0.95461   1.11985
 Alpha virt. eigenvalues --    1.17228   1.27995   1.40574   1.50246   1.62307
 Alpha virt. eigenvalues --    1.65398   1.70148   1.79154   2.08363   3.24708

 Mulliken charges:
               1
     1  O   -0.503993
     2  H    0.251997
     3  H    0.251997
 Sum of Mulliken charges =   0.00000

 Dipole moment (field-independent basis, Debye):
    X=              0.0000    Y=              0.0000    Z=             -2.4838  Tot=              2.4838
 Quadrupole moment (field-independent basis, Debye-Ang):
   XX=             -8.0191   YY=             -3.9281   ZZ=             -5.5676
   XY=              0.0000   XZ=              0.0000   YZ=              0.0000

 Normal termination of Gaussian 09 at Mon Sep 29 16:34:21 2014.
