 Gaussian 09, Revision D.01,
 Gaussian 09:  ES64L-G09RevD.01 24-Apr-2013

 -----------------
 #RHF 6-31G(d',p')
 -----------------

 -------------------
 H2O.r1.55theta141.0
 -------------------
 Symbolic Z-matrix:
 Charge =  0 Multiplicity = 1

                         Standard orientation:
 ---------------------------------------------------------------------
 Center     Atomic      Atomic             Coordinates (Angstroms)
 Number     Number       Type             X           Y           Z
 ---------------------------------------------------------------------
      1          8           0        0.000000    0.000000    0.103480
      2          1           0        0.000000    1.461094   -0.413921
      3          1           0        0.000000   -1.461094   -0.413921
 ---------------------------------------------------------------------

 SCF Done:  E(RHF) =  -75.7187631909     A.U. after   12 cycles

 The electronic state is 1-A1.
 Alpha  occ. eigenvalues --  -20.60430  -1.18050  -0.49575  -0.47022  -0.43325
 Alpha virt. eigenvalues --    0.00429   0.14595   0.92817   0.93844   1.13671
 Alpha virt. eigenvalues --    1.16372   1.31183   1.39696   1.48804   1.51714
 Alpha virt. eigenvalues --    1.59834   1.63537   1.86551   2.02729   3.23891

 Mulliken charges:
               1
     1  O   -0.569469
     2  H    0.284735
     3  H    0.284735
 Sum of Mulliken charges =   0.00000

 Dipole moment (field-independent basis, Debye):
    X=              0.0000    Y=              0.0000    Z=             -1.4118  Tot=              1.4118
 Quadrupole moment (field-independent basis, Debye-Ang):
   XX=             -8.2110   YY=              0.1687   ZZ=             -7.4105
   XY=              0.0000   XZ=              0.0000   YZ=              0.0000

 Normal termination of Gaussian 09 at Mon Sep 29 16:37:57 2014.
