 Gaussian 09, Revision D.01,
 Gaussian 09:  ES64L-G09RevD.01 24-Apr-2013

 -----------------
 #RHF 6-31G(d',p')
 -----------------

 -------------------
 H2O.r0.75theta131.0
 -------------------
 Symbolic Z-matrix:
 Charge =  0 Multiplicity = 1

                         Standard orientation:
 ---------------------------------------------------------------------
 Center     Atomic      Atomic             Coordinates (Angstroms)
 Number     Number       Type             X           Y           Z
 ---------------------------------------------------------------------
      1          8           0        0.000000    0.000000    0.062204
      2          1           0        0.000000    0.682471   -0.248816
      3          1           0        0.000000   -0.682471   -0.248816
 ---------------------------------------------------------------------

 SCF Done:  E(RHF) =  -75.8856980629     A.U. after    9 cycles

 The electronic state is 1-A1.
 Alpha  occ. eigenvalues --  -20.50565  -1.44611  -0.89544  -0.55346  -0.51139
 Alpha virt. eigenvalues --    0.25803   0.33234   1.06713   1.12889   1.13560
 Alpha virt. eigenvalues --    1.22222   1.32826   1.49420   1.50458   1.97716
 Alpha virt. eigenvalues --    2.00774   2.08715   3.07407   3.28597   3.46580

 Mulliken charges:
               1
     1  O   -0.444084
     2  H    0.222042
     3  H    0.222042
 Sum of Mulliken charges =   0.00000

 Dipole moment (field-independent basis, Debye):
    X=              0.0000    Y=              0.0000    Z=             -1.4639  Tot=              1.4639
 Quadrupole moment (field-independent basis, Debye-Ang):
   XX=             -6.6105   YY=             -3.8170   ZZ=             -6.2413
   XY=              0.0000   XZ=              0.0000   YZ=              0.0000

 Normal termination of Gaussian 09 at Mon Sep 29 16:21:24 2014.
