 Gaussian 09, Revision D.01,
 Gaussian 09:  ES64L-G09RevD.01 24-Apr-2013

 -----------------
 #RHF 6-31G(d',p')
 -----------------

 -------------------
 H2O.r0.85theta130.0
 -------------------
 Symbolic Z-matrix:
 Charge =  0 Multiplicity = 1

                         Standard orientation:
 ---------------------------------------------------------------------
 Center     Atomic      Atomic             Coordinates (Angstroms)
 Number     Number       Type             X           Y           Z
 ---------------------------------------------------------------------
      1          8           0        0.000000    0.000000    0.071845
      2          1           0        0.000000    0.770362   -0.287380
      3          1           0        0.000000   -0.770362   -0.287380
 ---------------------------------------------------------------------

 SCF Done:  E(RHF) =  -75.9912606852     A.U. after   10 cycles

 The electronic state is 1-A1.
 Alpha  occ. eigenvalues --  -20.52257  -1.37922  -0.81480  -0.53689  -0.49737
 Alpha virt. eigenvalues --    0.23914   0.32199   0.99032   1.15230   1.16479
 Alpha virt. eigenvalues --    1.17146   1.27009   1.47085   1.47585   1.90000
 Alpha virt. eigenvalues --    1.90449   1.97133   2.75351   2.93559   3.41772

 Mulliken charges:
               1
     1  O   -0.535573
     2  H    0.267787
     3  H    0.267787
 Sum of Mulliken charges =   0.00000

 Dipole moment (field-independent basis, Debye):
    X=              0.0000    Y=              0.0000    Z=             -1.5871  Tot=              1.5871
 Quadrupole moment (field-independent basis, Debye-Ang):
   XX=             -6.8780   YY=             -3.4793   ZZ=             -6.4261
   XY=              0.0000   XZ=              0.0000   YZ=              0.0000

 Normal termination of Gaussian 09 at Mon Sep 29 16:23:38 2014.
