 Gaussian 09, Revision D.01,
 Gaussian 09:  ES64L-G09RevD.01 24-Apr-2013

 -----------------
 #RHF 6-31G(d',p')
 -----------------

 ------------------
 H2O.r1.15theta85.0
 ------------------
 Symbolic Z-matrix:
 Charge =  0 Multiplicity = 1

                         Standard orientation:
 ---------------------------------------------------------------------
 Center     Atomic      Atomic             Coordinates (Angstroms)
 Number     Number       Type             X           Y           Z
 ---------------------------------------------------------------------
      1          8           0        0.000000    0.000000    0.169574
      2          1           0        0.000000    0.776929   -0.678295
      3          1           0        0.000000   -0.776929   -0.678295
 ---------------------------------------------------------------------

 SCF Done:  E(RHF) =  -75.9570380889     A.U. after   10 cycles

 The electronic state is 1-A1.
 Alpha  occ. eigenvalues --  -20.60126  -1.27761  -0.58777  -0.57042  -0.49840
 Alpha virt. eigenvalues --    0.16493   0.23339   0.93542   0.96251   1.14286
 Alpha virt. eigenvalues --    1.18447   1.26725   1.32953   1.54604   1.61301
 Alpha virt. eigenvalues --    1.66094   1.86417   2.18014   2.18660   3.34013

 Mulliken charges:
               1
     1  O   -0.515403
     2  H    0.257701
     3  H    0.257701
 Sum of Mulliken charges =   0.00000

 Dipole moment (field-independent basis, Debye):
    X=              0.0000    Y=              0.0000    Z=             -2.5807  Tot=              2.5807
 Quadrupole moment (field-independent basis, Debye-Ang):
   XX=             -7.5611   YY=             -4.9070   ZZ=             -5.3771
   XY=              0.0000   XZ=              0.0000   YZ=              0.0000

 Normal termination of Gaussian 09 at Mon Sep 29 16:29:09 2014.
