 Gaussian 09, Revision D.01,
 Gaussian 09:  ES64L-G09RevD.01 24-Apr-2013

 -----------------
 #RHF 6-31G(d',p')
 -----------------

 -------------------
 H2O.r0.85theta113.0
 -------------------
 Symbolic Z-matrix:
 Charge =  0 Multiplicity = 1

                         Standard orientation:
 ---------------------------------------------------------------------
 Center     Atomic      Atomic             Coordinates (Angstroms)
 Number     Number       Type             X           Y           Z
 ---------------------------------------------------------------------
      1          8           0        0.000000    0.000000    0.093829
      2          1           0        0.000000    0.708803   -0.375317
      3          1           0        0.000000   -0.708803   -0.375317
 ---------------------------------------------------------------------

 SCF Done:  E(RHF) =  -76.0010046891     A.U. after    9 cycles

 The electronic state is 1-A1.
 Alpha  occ. eigenvalues --  -20.53118  -1.39417  -0.78486  -0.57016  -0.50308
 Alpha virt. eigenvalues --    0.23641   0.32648   1.05947   1.08135   1.16075
 Alpha virt. eigenvalues --    1.16333   1.27750   1.44972   1.51951   1.79069
 Alpha virt. eigenvalues --    1.81224   2.06025   2.78863   2.81780   3.54329

 Mulliken charges:
               1
     1  O   -0.490918
     2  H    0.245459
     3  H    0.245459
 Sum of Mulliken charges =   0.00000

 Dipole moment (field-independent basis, Debye):
    X=              0.0000    Y=              0.0000    Z=             -1.9213  Tot=              1.9213
 Quadrupole moment (field-independent basis, Debye-Ang):
   XX=             -6.8629   YY=             -4.0444   ZZ=             -6.0919
   XY=              0.0000   XZ=              0.0000   YZ=              0.0000

 Normal termination of Gaussian 09 at Mon Sep 29 16:23:25 2014.
