 Gaussian 09, Revision D.01,
 Gaussian 09:  ES64L-G09RevD.01 24-Apr-2013

 -----------------
 #RHF 6-31G(d',p')
 -----------------

 -------------------
 H2O.r1.00theta130.0
 -------------------
 Symbolic Z-matrix:
 Charge =  0 Multiplicity = 1

                         Standard orientation:
 ---------------------------------------------------------------------
 Center     Atomic      Atomic             Coordinates (Angstroms)
 Number     Number       Type             X           Y           Z
 ---------------------------------------------------------------------
      1          8           0        0.000000    0.000000    0.084524
      2          1           0        0.000000    0.906308   -0.338095
      3          1           0        0.000000   -0.906308   -0.338095
 ---------------------------------------------------------------------

 SCF Done:  E(RHF) =  -76.0017508187     A.U. after   10 cycles

 The electronic state is 1-A1.
 Alpha  occ. eigenvalues --  -20.54555  -1.29960  -0.71528  -0.51164  -0.48138
 Alpha virt. eigenvalues --    0.19711   0.29690   0.92195   1.07674   1.16610
 Alpha virt. eigenvalues --    1.17797   1.24781   1.45061   1.45321   1.80968
 Alpha virt. eigenvalues --    1.83684   1.84155   2.39996   2.51741   3.34846

 Mulliken charges:
               1
     1  O   -0.624231
     2  H    0.312115
     3  H    0.312115
 Sum of Mulliken charges =   0.00000

 Dipole moment (field-independent basis, Debye):
    X=              0.0000    Y=              0.0000    Z=             -1.7117  Tot=              1.7117
 Quadrupole moment (field-independent basis, Debye-Ang):
   XX=             -7.2510   YY=             -2.8305   ZZ=             -6.6641
   XY=              0.0000   XZ=              0.0000   YZ=              0.0000

 Normal termination of Gaussian 09 at Mon Sep 29 16:26:39 2014.
