 Gaussian 09, Revision D.01,
 Gaussian 09:  ES64L-G09RevD.01 24-Apr-2013

 -----------------
 #RHF 6-31G(d',p')
 -----------------

 -------------------
 H2O.r1.75theta124.0
 -------------------
 Symbolic Z-matrix:
 Charge =  0 Multiplicity = 1

                         Standard orientation:
 ---------------------------------------------------------------------
 Center     Atomic      Atomic             Coordinates (Angstroms)
 Number     Number       Type             X           Y           Z
 ---------------------------------------------------------------------
      1          8           0        0.000000    0.000000    0.164315
      2          1           0        0.000000    1.545158   -0.657260
      3          1           0        0.000000   -1.545158   -0.657260
 ---------------------------------------------------------------------

 SCF Done:  E(RHF) =  -75.6487161850     A.U. after   13 cycles

 The electronic state is 1-A1.
 Alpha  occ. eigenvalues --  -20.64509  -1.18922  -0.49328  -0.45388  -0.43262
 Alpha virt. eigenvalues --   -0.01589   0.07238   0.94637   0.96785   1.13069
 Alpha virt. eigenvalues --    1.17763   1.20253   1.27100   1.49917   1.50021
 Alpha virt. eigenvalues --    1.54986   1.58278   1.90856   1.93731   3.20943

 Mulliken charges:
               1
     1  O   -0.434532
     2  H    0.217266
     3  H    0.217266
 Sum of Mulliken charges =   0.00000

 Dipole moment (field-independent basis, Debye):
    X=              0.0000    Y=              0.0000    Z=             -1.8113  Tot=              1.8113
 Quadrupole moment (field-independent basis, Debye-Ang):
   XX=             -8.3877   YY=             -0.6730   ZZ=             -6.7405
   XY=              0.0000   XZ=              0.0000   YZ=              0.0000

 Normal termination of Gaussian 09 at Mon Sep 29 16:41:48 2014.
