 Gaussian 09, Revision D.01,
 Gaussian 09:  ES64L-G09RevD.01 24-Apr-2013

 -----------------
 #RHF 6-31G(d',p')
 -----------------

 -------------------
 H2O.r0.70theta156.0
 -------------------
 Symbolic Z-matrix:
 Charge =  0 Multiplicity = 1

                         Standard orientation:
 ---------------------------------------------------------------------
 Center     Atomic      Atomic             Coordinates (Angstroms)
 Number     Number       Type             X           Y           Z
 ---------------------------------------------------------------------
      1          8           0        0.000000    0.000000    0.029108
      2          1           0        0.000000    0.684703   -0.116431
      3          1           0        0.000000   -0.684703   -0.116431
 ---------------------------------------------------------------------

 SCF Done:  E(RHF) =  -75.7586038537     A.U. after    9 cycles

 The electronic state is 1-A1.
 Alpha  occ. eigenvalues --  -20.49330  -1.46450  -0.97625  -0.52760  -0.51640
 Alpha virt. eigenvalues --    0.27121   0.32832   1.01597   1.11448   1.11800
 Alpha virt. eigenvalues --    1.33446   1.41048   1.47803   1.52223   2.04770
 Alpha virt. eigenvalues --    2.19938   2.21396   3.19839   3.27366   3.34036

 Mulliken charges:
               1
     1  O   -0.418765
     2  H    0.209383
     3  H    0.209383
 Sum of Mulliken charges =   0.00000

 Dipole moment (field-independent basis, Debye):
    X=              0.0000    Y=              0.0000    Z=             -0.7788  Tot=              0.7788
 Quadrupole moment (field-independent basis, Debye-Ang):
   XX=             -6.4823   YY=             -3.5949   ZZ=             -6.3950
   XY=              0.0000   XZ=              0.0000   YZ=              0.0000

 Normal termination of Gaussian 09 at Mon Sep 29 16:20:33 2014.
