 Gaussian 09, Revision D.01,
 Gaussian 09:  ES64L-G09RevD.01 24-Apr-2013

 -----------------
 #RHF 6-31G(d',p')
 -----------------

 ------------------
 H2O.r1.90theta72.0
 ------------------
 Symbolic Z-matrix:
 Charge =  0 Multiplicity = 1

                         Standard orientation:
 ---------------------------------------------------------------------
 Center     Atomic      Atomic             Coordinates (Angstroms)
 Number     Number       Type             X           Y           Z
 ---------------------------------------------------------------------
      1          8           0        0.000000    0.000000    0.307426
      2          1           0        0.000000    1.116792   -1.229706
      3          1           0        0.000000   -1.116792   -1.229706
 ---------------------------------------------------------------------

 SCF Done:  E(RHF) =  -75.6160430124     A.U. after   14 cycles

 The electronic state is 1-A1.
 Alpha  occ. eigenvalues --  -20.66334  -1.20574  -0.51549  -0.48708  -0.41637
 Alpha virt. eigenvalues --   -0.02850   0.04122   0.94638   1.00392   1.12464
 Alpha virt. eigenvalues --    1.13241   1.15630   1.20380   1.48266   1.50346
 Alpha virt. eigenvalues --    1.53806   1.59118   1.70300   2.01669   3.17831

 Mulliken charges:
               1
     1  O   -0.286243
     2  H    0.143121
     3  H    0.143121
 Sum of Mulliken charges =   0.00000

 Dipole moment (field-independent basis, Debye):
    X=              0.0000    Y=              0.0000    Z=             -2.2706  Tot=              2.2706
 Quadrupole moment (field-independent basis, Debye-Ang):
   XX=             -8.5532   YY=             -5.1565   ZZ=             -4.2871
   XY=              0.0000   XZ=              0.0000   YZ=              0.0000

 Normal termination of Gaussian 09 at Mon Sep 29 16:44:16 2014.
