 Gaussian 09, Revision D.01,
 Gaussian 09:  ES64L-G09RevD.01 24-Apr-2013

 -----------------
 #RHF 6-31G(d',p')
 -----------------

 -------------------
 H2O.r1.85theta125.0
 -------------------
 Symbolic Z-matrix:
 Charge =  0 Multiplicity = 1

                         Standard orientation:
 ---------------------------------------------------------------------
 Center     Atomic      Atomic             Coordinates (Angstroms)
 Number     Number       Type             X           Y           Z
 ---------------------------------------------------------------------
      1          8           0        0.000000    0.000000    0.170847
      2          1           0        0.000000    1.640970   -0.683388
      3          1           0        0.000000   -1.640970   -0.683388
 ---------------------------------------------------------------------

 SCF Done:  E(RHF) =  -75.6076743877     A.U. after   13 cycles

 The electronic state is 1-A1.
 Alpha  occ. eigenvalues --  -20.65007  -1.18692  -0.49541  -0.43323  -0.42585
 Alpha virt. eigenvalues --   -0.03718   0.05245   0.95816   0.97565   1.13676
 Alpha virt. eigenvalues --    1.16260   1.18293   1.22253   1.49701   1.49747
 Alpha virt. eigenvalues --    1.53466   1.55916   1.89618   1.90026   3.20476

 Mulliken charges:
               1
     1  O   -0.403856
     2  H    0.201928
     3  H    0.201928
 Sum of Mulliken charges =   0.00000

 Dipole moment (field-independent basis, Debye):
    X=              0.0000    Y=              0.0000    Z=             -1.7752  Tot=              1.7752
 Quadrupole moment (field-independent basis, Debye-Ang):
   XX=             -8.4520   YY=             -0.2610   ZZ=             -6.7687
   XY=              0.0000   XZ=              0.0000   YZ=              0.0000

 Normal termination of Gaussian 09 at Mon Sep 29 16:43:50 2014.
