 Gaussian 09, Revision D.01,
 Gaussian 09:  ES64L-G09RevD.01 24-Apr-2013

 -----------------
 #RHF 6-31G(d',p')
 -----------------

 -------------------
 H2O.r1.25theta108.0
 -------------------
 Symbolic Z-matrix:
 Charge =  0 Multiplicity = 1

                         Standard orientation:
 ---------------------------------------------------------------------
 Center     Atomic      Atomic             Coordinates (Angstroms)
 Number     Number       Type             X           Y           Z
 ---------------------------------------------------------------------
      1          8           0        0.000000    0.000000    0.146946
      2          1           0        0.000000    1.011271   -0.587785
      3          1           0        0.000000   -1.011271   -0.587785
 ---------------------------------------------------------------------

 SCF Done:  E(RHF) =  -75.9091047172     A.U. after   11 cycles

 The electronic state is 1-A1.
 Alpha  occ. eigenvalues --  -20.60264  -1.23893  -0.58064  -0.51261  -0.48795
 Alpha virt. eigenvalues --    0.13186   0.21134   0.91344   0.96461   1.14079
 Alpha virt. eigenvalues --    1.16305   1.26405   1.42826   1.48292   1.69580
 Alpha virt. eigenvalues --    1.71924   1.74096   1.96962   2.10827   3.29307

 Mulliken charges:
               1
     1  O   -0.566546
     2  H    0.283273
     3  H    0.283273
 Sum of Mulliken charges =   0.00000

 Dipole moment (field-independent basis, Debye):
    X=              0.0000    Y=              0.0000    Z=             -2.2533  Tot=              2.2533
 Quadrupole moment (field-independent basis, Debye-Ang):
   XX=             -7.7663   YY=             -3.2851   ZZ=             -6.1606
   XY=              0.0000   XZ=              0.0000   YZ=              0.0000

 Normal termination of Gaussian 09 at Mon Sep 29 16:31:23 2014.
