 Gaussian 09, Revision D.01,
 Gaussian 09:  ES64L-G09RevD.01 24-Apr-2013

 -----------------
 #RHF 6-31G(d',p')
 -----------------

 ------------------
 H2O.r1.45theta73.0
 ------------------
 Symbolic Z-matrix:
 Charge =  0 Multiplicity = 1

                         Standard orientation:
 ---------------------------------------------------------------------
 Center     Atomic      Atomic             Coordinates (Angstroms)
 Number     Number       Type             X           Y           Z
 ---------------------------------------------------------------------
      1          8           0        0.000000    0.000000    0.233118
      2          1           0        0.000000    0.862493   -0.932474
      3          1           0        0.000000   -0.862493   -0.932474
 ---------------------------------------------------------------------

 SCF Done:  E(RHF) =  -75.8002830753     A.U. after   11 cycles

 The electronic state is 1-A1.
 Alpha  occ. eigenvalues --  -20.64370  -1.22679  -0.52026  -0.50545  -0.50397
 Alpha virt. eigenvalues --    0.09091   0.10964   0.92233   0.94442   1.10602
 Alpha virt. eigenvalues --    1.17907   1.26574   1.31123   1.54346   1.54467
 Alpha virt. eigenvalues --    1.58859   1.68337   1.94041   2.03512   3.22150

 Mulliken charges:
               1
     1  O   -0.451656
     2  H    0.225828
     3  H    0.225828
 Sum of Mulliken charges =   0.00000

 Dipole moment (field-independent basis, Debye):
    X=              0.0000    Y=              0.0000    Z=             -2.7310  Tot=              2.7310
 Quadrupole moment (field-independent basis, Debye-Ang):
   XX=             -8.0993   YY=             -5.4205   ZZ=             -4.6119
   XY=              0.0000   XZ=              0.0000   YZ=              0.0000

 Normal termination of Gaussian 09 at Mon Sep 29 16:35:10 2014.
