 Gaussian 09, Revision D.01,
 Gaussian 09:  ES64L-G09RevD.01 24-Apr-2013

 -----------------
 #RHF 6-31G(d',p')
 -----------------

 -------------------
 H2O.r1.10theta146.0
 -------------------
 Symbolic Z-matrix:
 Charge =  0 Multiplicity = 1

                         Standard orientation:
 ---------------------------------------------------------------------
 Center     Atomic      Atomic             Coordinates (Angstroms)
 Number     Number       Type             X           Y           Z
 ---------------------------------------------------------------------
      1          8           0        0.000000    0.000000    0.064322
      2          1           0        0.000000    1.051935   -0.257287
      3          1           0        0.000000   -1.051935   -0.257287
 ---------------------------------------------------------------------

 SCF Done:  E(RHF) =  -75.9442783556     A.U. after   10 cycles

 The electronic state is 1-A1.
 Alpha  occ. eigenvalues --  -20.54007  -1.24659  -0.66643  -0.47001  -0.46178
 Alpha virt. eigenvalues --    0.14696   0.27938   0.87330   1.03600   1.17807
 Alpha virt. eigenvalues --    1.18213   1.31326   1.43976   1.45579   1.77124
 Alpha virt. eigenvalues --    1.78868   1.80169   2.16891   2.40467   3.28208

 Mulliken charges:
               1
     1  O   -0.720515
     2  H    0.360258
     3  H    0.360258
 Sum of Mulliken charges =   0.00000

 Dipole moment (field-independent basis, Debye):
    X=              0.0000    Y=              0.0000    Z=             -1.3313  Tot=              1.3313
 Quadrupole moment (field-independent basis, Debye-Ang):
   XX=             -7.4904   YY=             -1.4962   ZZ=             -7.1516
   XY=              0.0000   XZ=              0.0000   YZ=              0.0000

 Normal termination of Gaussian 09 at Mon Sep 29 16:28:50 2014.
