 Gaussian 09, Revision D.01,
 Gaussian 09:  ES64L-G09RevD.01 24-Apr-2013

 -----------------
 #RHF 6-31G(d',p')
 -----------------

 -------------------
 H2O.r1.45theta127.0
 -------------------
 Symbolic Z-matrix:
 Charge =  0 Multiplicity = 1

                         Standard orientation:
 ---------------------------------------------------------------------
 Center     Atomic      Atomic             Coordinates (Angstroms)
 Number     Number       Type             X           Y           Z
 ---------------------------------------------------------------------
      1          8           0        0.000000    0.000000    0.129397
      2          1           0        0.000000    1.297655   -0.517589
      3          1           0        0.000000   -1.297655   -0.517589
 ---------------------------------------------------------------------

 SCF Done:  E(RHF) =  -75.7860650964     A.U. after   11 cycles

 The electronic state is 1-A1.
 Alpha  occ. eigenvalues --  -20.61090  -1.19906  -0.52511  -0.47938  -0.45848
 Alpha virt. eigenvalues --    0.05096   0.16143   0.90984   0.95574   1.13187
 Alpha virt. eigenvalues --    1.16234   1.35252   1.37446   1.48660   1.58948
 Alpha virt. eigenvalues --    1.61564   1.66420   1.91974   1.96395   3.23882

 Mulliken charges:
               1
     1  O   -0.562707
     2  H    0.281354
     3  H    0.281354
 Sum of Mulliken charges =   0.00000

 Dipole moment (field-independent basis, Debye):
    X=              0.0000    Y=              0.0000    Z=             -1.8183  Tot=              1.8183
 Quadrupole moment (field-independent basis, Debye-Ang):
   XX=             -8.0871   YY=             -1.3006   ZZ=             -6.8901
   XY=              0.0000   XZ=              0.0000   YZ=              0.0000

 Normal termination of Gaussian 09 at Mon Sep 29 16:35:46 2014.
