 Gaussian 09, Revision D.01,
 Gaussian 09:  ES64L-G09RevD.01 24-Apr-2013

 -----------------
 #RHF 6-31G(d',p')
 -----------------

 -------------------
 H2O.r1.25theta103.0
 -------------------
 Symbolic Z-matrix:
 Charge =  0 Multiplicity = 1

                         Standard orientation:
 ---------------------------------------------------------------------
 Center     Atomic      Atomic             Coordinates (Angstroms)
 Number     Number       Type             X           Y           Z
 ---------------------------------------------------------------------
      1          8           0        0.000000    0.000000    0.155629
      2          1           0        0.000000    0.978260   -0.622515
      3          1           0        0.000000   -0.978260   -0.622515
 ---------------------------------------------------------------------

 SCF Done:  E(RHF) =  -75.9109359144     A.U. after   10 cycles

 The electronic state is 1-A1.
 Alpha  occ. eigenvalues --  -20.60650  -1.24209  -0.57628  -0.52064  -0.49075
 Alpha virt. eigenvalues --    0.13505   0.20711   0.91751   0.95766   1.13825
 Alpha virt. eigenvalues --    1.16550   1.26516   1.42510   1.48968   1.68590
 Alpha virt. eigenvalues --    1.71254   1.75241   1.96105   2.10426   3.29891

 Mulliken charges:
               1
     1  O   -0.553894
     2  H    0.276947
     3  H    0.276947
 Sum of Mulliken charges =   0.00000

 Dipole moment (field-independent basis, Debye):
    X=              0.0000    Y=              0.0000    Z=             -2.3434  Tot=              2.3434
 Quadrupole moment (field-independent basis, Debye-Ang):
   XX=             -7.7658   YY=             -3.6290   ZZ=             -5.9742
   XY=              0.0000   XZ=              0.0000   YZ=              0.0000

 Normal termination of Gaussian 09 at Mon Sep 29 16:31:19 2014.
