 Gaussian 09, Revision D.01,
 Gaussian 09:  ES64L-G09RevD.01 24-Apr-2013

 -----------------
 #RHF 6-31G(d',p')
 -----------------

 ------------------
 H2O.r0.70theta91.0
 ------------------
 Symbolic Z-matrix:
 Charge =  0 Multiplicity = 1

                         Standard orientation:
 ---------------------------------------------------------------------
 Center     Atomic      Atomic             Coordinates (Angstroms)
 Number     Number       Type             X           Y           Z
 ---------------------------------------------------------------------
      1          8           0        0.000000    0.000000    0.098127
      2          1           0        0.000000    0.499275   -0.392509
      3          1           0        0.000000   -0.499275   -0.392509
 ---------------------------------------------------------------------

 SCF Done:  E(RHF) =  -75.7645032018     A.U. after    9 cycles

 The electronic state is 1-A1.
 Alpha  occ. eigenvalues --  -20.50885  -1.54345  -0.82232  -0.64571  -0.52773
 Alpha virt. eigenvalues --    0.24604   0.35557   1.03918   1.08688   1.10540
 Alpha virt. eigenvalues --    1.37681   1.41070   1.44443   1.67883   1.73893
 Alpha virt. eigenvalues --    1.77117   2.42609   3.14228   3.40185   3.79849

 Mulliken charges:
               1
     1  O   -0.369797
     2  H    0.184898
     3  H    0.184898
 Sum of Mulliken charges =   0.00000

 Dipole moment (field-independent basis, Debye):
    X=              0.0000    Y=              0.0000    Z=             -2.0411  Tot=              2.0411
 Quadrupole moment (field-independent basis, Debye-Ang):
   XX=             -6.4688   YY=             -4.8853   ZZ=             -5.4839
   XY=              0.0000   XZ=              0.0000   YZ=              0.0000

 Normal termination of Gaussian 09 at Mon Sep 29 16:19:48 2014.
