 Gaussian 09, Revision D.01,
 Gaussian 09:  ES64L-G09RevD.01 24-Apr-2013

 -----------------
 #RHF 6-31G(d',p')
 -----------------

 -------------------
 H2O.r1.00theta107.0
 -------------------
 Symbolic Z-matrix:
 Charge =  0 Multiplicity = 1

                         Standard orientation:
 ---------------------------------------------------------------------
 Center     Atomic      Atomic             Coordinates (Angstroms)
 Number     Number       Type             X           Y           Z
 ---------------------------------------------------------------------
      1          8           0        0.000000    0.000000    0.118965
      2          1           0        0.000000    0.803857   -0.475858
      3          1           0        0.000000   -0.803857   -0.475858
 ---------------------------------------------------------------------

 SCF Done:  E(RHF) =  -76.0173890967     A.U. after   10 cycles

 The electronic state is 1-A1.
 Alpha  occ. eigenvalues --  -20.56316  -1.31776  -0.68604  -0.55616  -0.49340
 Alpha virt. eigenvalues --    0.20349   0.29365   0.98815   0.99973   1.16752
 Alpha virt. eigenvalues --    1.16875   1.25128   1.42409   1.49882   1.72514
 Alpha virt. eigenvalues --    1.73823   1.92145   2.41338   2.42533   3.44993

 Mulliken charges:
               1
     1  O   -0.546276
     2  H    0.273138
     3  H    0.273138
 Sum of Mulliken charges =   0.00000

 Dipole moment (field-independent basis, Debye):
    X=              0.0000    Y=              0.0000    Z=             -2.1679  Tot=              2.1679
 Quadrupole moment (field-independent basis, Debye-Ang):
   XX=             -7.2322   YY=             -3.9389   ZZ=             -6.0786
   XY=              0.0000   XZ=              0.0000   YZ=              0.0000

 Normal termination of Gaussian 09 at Mon Sep 29 16:26:24 2014.
