 Gaussian 09, Revision D.01,
 Gaussian 09:  ES64L-G09RevD.01 24-Apr-2013

 -----------------
 #RHF 6-31G(d',p')
 -----------------

 -------------------
 H2O.r1.15theta132.0
 -------------------
 Symbolic Z-matrix:
 Charge =  0 Multiplicity = 1

                         Standard orientation:
 ---------------------------------------------------------------------
 Center     Atomic      Atomic             Coordinates (Angstroms)
 Number     Number       Type             X           Y           Z
 ---------------------------------------------------------------------
      1          8           0        0.000000    0.000000    0.093549
      2          1           0        0.000000    1.050577   -0.374198
      3          1           0        0.000000   -1.050577   -0.374198
 ---------------------------------------------------------------------

 SCF Done:  E(RHF) =  -75.9391848972     A.U. after   11 cycles

 The electronic state is 1-A1.
 Alpha  occ. eigenvalues --  -20.56372  -1.24396  -0.63698  -0.48628  -0.47148
 Alpha virt. eigenvalues --    0.14249   0.26106   0.89457   1.01026   1.16530
 Alpha virt. eigenvalues --    1.16749   1.27118   1.44113   1.45271   1.75385
 Alpha virt. eigenvalues --    1.75765   1.77653   2.15423   2.22272   3.29445

 Mulliken charges:
               1
     1  O   -0.659157
     2  H    0.329578
     3  H    0.329578
 Sum of Mulliken charges =   0.00000

 Dipole moment (field-independent basis, Debye):
    X=              0.0000    Y=              0.0000    Z=             -1.7278  Tot=              1.7278
 Quadrupole moment (field-independent basis, Debye-Ang):
   XX=             -7.5827   YY=             -2.0397   ZZ=             -6.8887
   XY=              0.0000   XZ=              0.0000   YZ=              0.0000

 Normal termination of Gaussian 09 at Mon Sep 29 16:29:40 2014.
