 Gaussian 09, Revision D.01,
 Gaussian 09:  ES64L-G09RevD.01 24-Apr-2013

 -----------------
 #RHF 6-31G(d',p')
 -----------------

 -------------------
 H2O.r1.60theta108.0
 -------------------
 Symbolic Z-matrix:
 Charge =  0 Multiplicity = 1

                         Standard orientation:
 ---------------------------------------------------------------------
 Center     Atomic      Atomic             Coordinates (Angstroms)
 Number     Number       Type             X           Y           Z
 ---------------------------------------------------------------------
      1          8           0        0.000000    0.000000    0.188091
      2          1           0        0.000000    1.294427   -0.752365
      3          1           0        0.000000   -1.294427   -0.752365
 ---------------------------------------------------------------------

 SCF Done:  E(RHF) =  -75.7268423324     A.U. after   11 cycles

 The electronic state is 1-A1.
 Alpha  occ. eigenvalues --  -20.64540  -1.20241  -0.49734  -0.48492  -0.46037
 Alpha virt. eigenvalues --    0.03608   0.09358   0.91540   0.97355   1.11994
 Alpha virt. eigenvalues --    1.17461   1.29783   1.29926   1.50132   1.54185
 Alpha virt. eigenvalues --    1.56645   1.62093   1.80706   2.06407   3.21232

 Mulliken charges:
               1
     1  O   -0.459278
     2  H    0.229639
     3  H    0.229639
 Sum of Mulliken charges =   0.00000

 Dipole moment (field-independent basis, Debye):
    X=              0.0000    Y=              0.0000    Z=             -2.2126  Tot=              2.2126
 Quadrupole moment (field-independent basis, Debye-Ang):
   XX=             -8.2623   YY=             -2.4728   ZZ=             -6.0288
   XY=              0.0000   XZ=              0.0000   YZ=              0.0000

 Normal termination of Gaussian 09 at Mon Sep 29 16:38:35 2014.
