 Gaussian 09, Revision D.01,
 Gaussian 09:  ES64L-G09RevD.01 24-Apr-2013

 -----------------
 #RHF 6-31G(d',p')
 -----------------

 ------------------
 H2O.r1.90theta70.0
 ------------------
 Symbolic Z-matrix:
 Charge =  0 Multiplicity = 1

                         Standard orientation:
 ---------------------------------------------------------------------
 Center     Atomic      Atomic             Coordinates (Angstroms)
 Number     Number       Type             X           Y           Z
 ---------------------------------------------------------------------
      1          8           0        0.000000    0.000000    0.311278
      2          1           0        0.000000    1.089795   -1.245111
      3          1           0        0.000000   -1.089795   -1.245111
 ---------------------------------------------------------------------

 SCF Done:  E(RHF) =  -75.6189921523     A.U. after   15 cycles

 The electronic state is 1-A1.
 Alpha  occ. eigenvalues --  -20.66206  -1.20610  -0.51583  -0.49048  -0.41886
 Alpha virt. eigenvalues --   -0.02738   0.04373   0.95025   1.00084   1.12412
 Alpha virt. eigenvalues --    1.13041   1.15514   1.20433   1.47255   1.50531
 Alpha virt. eigenvalues --    1.53578   1.60384   1.70660   2.01458   3.17721

 Mulliken charges:
               1
     1  O   -0.279858
     2  H    0.139929
     3  H    0.139929
 Sum of Mulliken charges =   0.00000

 Dipole moment (field-independent basis, Debye):
    X=              0.0000    Y=              0.0000    Z=             -2.2362  Tot=              2.2362
 Quadrupole moment (field-independent basis, Debye-Ang):
   XX=             -8.5555   YY=             -5.2955   ZZ=             -4.2747
   XY=              0.0000   XZ=              0.0000   YZ=              0.0000

 Normal termination of Gaussian 09 at Mon Sep 29 16:44:15 2014.
