 Gaussian 09, Revision D.01,
 Gaussian 09:  ES64L-G09RevD.01 24-Apr-2013

 -----------------
 #RHF 6-31G(d',p')
 -----------------

 -------------------
 H2O.r0.75theta144.0
 -------------------
 Symbolic Z-matrix:
 Charge =  0 Multiplicity = 1

                         Standard orientation:
 ---------------------------------------------------------------------
 Center     Atomic      Atomic             Coordinates (Angstroms)
 Number     Number       Type             X           Y           Z
 ---------------------------------------------------------------------
      1          8           0        0.000000    0.000000    0.046353
      2          1           0        0.000000    0.713292   -0.185410
      3          1           0        0.000000   -0.713292   -0.185410
 ---------------------------------------------------------------------

 SCF Done:  E(RHF) =  -75.8749273474     A.U. after    9 cycles

 The electronic state is 1-A1.
 Alpha  occ. eigenvalues --  -20.50167  -1.43552  -0.91566  -0.53245  -0.50885
 Alpha virt. eigenvalues --    0.26114   0.32797   1.00917   1.13045   1.13781
 Alpha virt. eigenvalues --    1.29699   1.33103   1.47820   1.50331   2.02728
 Alpha virt. eigenvalues --    2.06016   2.07935   3.05031   3.35259   3.41734

 Mulliken charges:
               1
     1  O   -0.467916
     2  H    0.233958
     3  H    0.233958
 Sum of Mulliken charges =   0.00000

 Dipole moment (field-independent basis, Debye):
    X=              0.0000    Y=              0.0000    Z=             -1.1513  Tot=              1.1513
 Quadrupole moment (field-independent basis, Debye-Ang):
   XX=             -6.6194   YY=             -3.5540   ZZ=             -6.4139
   XY=              0.0000   XZ=              0.0000   YZ=              0.0000

 Normal termination of Gaussian 09 at Mon Sep 29 16:21:32 2014.
