 Gaussian 09, Revision D.01,
 Gaussian 09:  ES64L-G09RevD.01 24-Apr-2013

 -----------------
 #RHF 6-31G(d',p')
 -----------------

 -------------------
 H2O.r1.35theta148.0
 -------------------
 Symbolic Z-matrix:
 Charge =  0 Multiplicity = 1

                         Standard orientation:
 ---------------------------------------------------------------------
 Center     Atomic      Atomic             Coordinates (Angstroms)
 Number     Number       Type             X           Y           Z
 ---------------------------------------------------------------------
      1          8           0        0.000000    0.000000    0.074422
      2          1           0        0.000000    1.297703   -0.297688
      3          1           0        0.000000   -1.297703   -0.297688
 ---------------------------------------------------------------------

 SCF Done:  E(RHF) =  -75.8087709100     A.U. after   11 cycles

 The electronic state is 1-A1.
 Alpha  occ. eigenvalues --  -20.56486  -1.18696  -0.55386  -0.45312  -0.43965
 Alpha virt. eigenvalues --    0.04972   0.21516   0.89525   0.94749   1.15587
 Alpha virt. eigenvalues --    1.16586   1.39743   1.42030   1.46545   1.64666
 Alpha virt. eigenvalues --    1.66983   1.69629   1.88008   2.11864   3.26182

 Mulliken charges:
               1
     1  O   -0.700442
     2  H    0.350221
     3  H    0.350221
 Sum of Mulliken charges =   0.00000

 Dipole moment (field-independent basis, Debye):
    X=              0.0000    Y=              0.0000    Z=             -1.2805  Tot=              1.2805
 Quadrupole moment (field-independent basis, Debye-Ang):
   XX=             -7.9527   YY=              0.0180   ZZ=             -7.4960
   XY=              0.0000   XZ=              0.0000   YZ=              0.0000

 Normal termination of Gaussian 09 at Mon Sep 29 16:33:56 2014.
