 Gaussian 09, Revision D.01,
 Gaussian 09:  ES64L-G09RevD.01 24-Apr-2013

 -----------------
 #RHF 6-31G(d',p')
 -----------------

 -------------------
 H2O.r1.20theta148.0
 -------------------
 Symbolic Z-matrix:
 Charge =  0 Multiplicity = 1

                         Standard orientation:
 ---------------------------------------------------------------------
 Center     Atomic      Atomic             Coordinates (Angstroms)
 Number     Number       Type             X           Y           Z
 ---------------------------------------------------------------------
      1          8           0        0.000000    0.000000    0.066153
      2          1           0        0.000000    1.153514   -0.264612
      3          1           0        0.000000   -1.153514   -0.264612
 ---------------------------------------------------------------------

 SCF Done:  E(RHF) =  -75.8903686049     A.U. after   11 cycles

 The electronic state is 1-A1.
 Alpha  occ. eigenvalues --  -20.54703  -1.21472  -0.61563  -0.45439  -0.45411
 Alpha virt. eigenvalues --    0.10409   0.25712   0.87597   0.98897   1.17353
 Alpha virt. eigenvalues --    1.17449   1.34963   1.44746   1.44951   1.72978
 Alpha virt. eigenvalues --    1.74796   1.74887   2.01750   2.25457   3.27246

 Mulliken charges:
               1
     1  O   -0.737341
     2  H    0.368671
     3  H    0.368671
 Sum of Mulliken charges =   0.00000

 Dipole moment (field-independent basis, Debye):
    X=              0.0000    Y=              0.0000    Z=             -1.2939  Tot=              1.2939
 Quadrupole moment (field-independent basis, Debye-Ang):
   XX=             -7.6939   YY=             -0.7669   ZZ=             -7.3341
   XY=              0.0000   XZ=              0.0000   YZ=              0.0000

 Normal termination of Gaussian 09 at Mon Sep 29 16:30:49 2014.
