 Gaussian 09, Revision D.01,
 Gaussian 09:  ES64L-G09RevD.01 24-Apr-2013

 -----------------
 #RHF 6-31G(d',p')
 -----------------

 ------------------
 H2O.r1.05theta98.0
 ------------------
 Symbolic Z-matrix:
 Charge =  0 Multiplicity = 1

                         Standard orientation:
 ---------------------------------------------------------------------
 Center     Atomic      Atomic             Coordinates (Angstroms)
 Number     Number       Type             X           Y           Z
 ---------------------------------------------------------------------
      1          8           0        0.000000    0.000000    0.137772
      2          1           0        0.000000    0.792445   -0.551090
      3          1           0        0.000000   -0.792445   -0.551090
 ---------------------------------------------------------------------

 SCF Done:  E(RHF) =  -76.0033315947     A.U. after   10 cycles

 The electronic state is 1-A1.
 Alpha  occ. eigenvalues --  -20.57764  -1.30349  -0.64738  -0.56523  -0.49519
 Alpha virt. eigenvalues --    0.19120   0.27592   0.96440   0.98415   1.16174
 Alpha virt. eigenvalues --    1.17561   1.25632   1.39622   1.51691   1.67520
 Alpha virt. eigenvalues --    1.69169   1.91497   2.30258   2.33680   3.44232

 Mulliken charges:
               1
     1  O   -0.534010
     2  H    0.267005
     3  H    0.267005
 Sum of Mulliken charges =   0.00000

 Dipole moment (field-independent basis, Debye):
    X=              0.0000    Y=              0.0000    Z=             -2.3453  Tot=              2.3453
 Quadrupole moment (field-independent basis, Debye-Ang):
   XX=             -7.3443   YY=             -4.3029   ZZ=             -5.8313
   XY=              0.0000   XZ=              0.0000   YZ=              0.0000

 Normal termination of Gaussian 09 at Mon Sep 29 16:27:19 2014.
