 Gaussian 09, Revision D.01,
 Gaussian 09:  ES64L-G09RevD.01 24-Apr-2013

 -----------------
 #RHF 6-31G(d',p')
 -----------------

 -------------------
 H2O.r1.00theta149.0
 -------------------
 Symbolic Z-matrix:
 Charge =  0 Multiplicity = 1

                         Standard orientation:
 ---------------------------------------------------------------------
 Center     Atomic      Atomic             Coordinates (Angstroms)
 Number     Number       Type             X           Y           Z
 ---------------------------------------------------------------------
      1          8           0        0.000000    0.000000    0.053448
      2          1           0        0.000000    0.963630   -0.213791
      3          1           0        0.000000   -0.963630   -0.213791
 ---------------------------------------------------------------------

 SCF Done:  E(RHF) =  -75.9788161730     A.U. after   10 cycles

 The electronic state is 1-A1.
 Alpha  occ. eigenvalues --  -20.52776  -1.28434  -0.72708  -0.48053  -0.46939
 Alpha virt. eigenvalues --    0.18562   0.29826   0.87333   1.10084   1.18113
 Alpha virt. eigenvalues --    1.18724   1.31303   1.43523   1.46692   1.81399
 Alpha virt. eigenvalues --    1.84810   1.85934   2.33317   2.64635   3.28447

 Mulliken charges:
               1
     1  O   -0.698620
     2  H    0.349310
     3  H    0.349310
 Sum of Mulliken charges =   0.00000

 Dipole moment (field-independent basis, Debye):
    X=              0.0000    Y=              0.0000    Z=             -1.1897  Tot=              1.1897
 Quadrupole moment (field-independent basis, Debye-Ang):
   XX=             -7.2697   YY=             -2.0095   ZZ=             -7.0325
   XY=              0.0000   XZ=              0.0000   YZ=              0.0000

 Normal termination of Gaussian 09 at Mon Sep 29 16:26:51 2014.
