 Gaussian 09, Revision D.01,
 Gaussian 09:  ES64L-G09RevD.01 24-Apr-2013

 -----------------
 #RHF 6-31G(d',p')
 -----------------

 -------------------
 H2O.r1.10theta157.0
 -------------------
 Symbolic Z-matrix:
 Charge =  0 Multiplicity = 1

                         Standard orientation:
 ---------------------------------------------------------------------
 Center     Atomic      Atomic             Coordinates (Angstroms)
 Number     Number       Type             X           Y           Z
 ---------------------------------------------------------------------
      1          8           0        0.000000    0.000000    0.043861
      2          1           0        0.000000    1.077917   -0.175444
      3          1           0        0.000000   -1.077917   -0.175444
 ---------------------------------------------------------------------

 SCF Done:  E(RHF) =  -75.9296917066     A.U. after   10 cycles

 The electronic state is 1-A1.
 Alpha  occ. eigenvalues --  -20.52600  -1.23638  -0.66678  -0.45496  -0.45207
 Alpha virt. eigenvalues --    0.13642   0.28262   0.85876   1.03271   1.18778
 Alpha virt. eigenvalues --    1.18973   1.36675   1.43470   1.46584   1.76538
 Alpha virt. eigenvalues --    1.79679   1.80180   2.12314   2.48519   3.27003

 Mulliken charges:
               1
     1  O   -0.774222
     2  H    0.387111
     3  H    0.387111
 Sum of Mulliken charges =   0.00000

 Dipole moment (field-independent basis, Debye):
    X=              0.0000    Y=              0.0000    Z=             -0.9652  Tot=              0.9652
 Quadrupole moment (field-independent basis, Debye-Ang):
   XX=             -7.4997   YY=             -0.9498   ZZ=             -7.3387
   XY=              0.0000   XZ=              0.0000   YZ=              0.0000

 Normal termination of Gaussian 09 at Mon Sep 29 16:28:57 2014.
