 Gaussian 09, Revision D.01,
 Gaussian 09:  ES64L-G09RevD.01 24-Apr-2013

 -----------------
 #RHF 6-31G(d',p')
 -----------------

 -------------------
 H2O.r0.85theta126.0
 -------------------
 Symbolic Z-matrix:
 Charge =  0 Multiplicity = 1

                         Standard orientation:
 ---------------------------------------------------------------------
 Center     Atomic      Atomic             Coordinates (Angstroms)
 Number     Number       Type             X           Y           Z
 ---------------------------------------------------------------------
      1          8           0        0.000000    0.000000    0.077178
      2          1           0        0.000000    0.757356   -0.308714
      3          1           0        0.000000   -0.757356   -0.308714
 ---------------------------------------------------------------------

 SCF Done:  E(RHF) =  -75.9944864216     A.U. after    9 cycles

 The electronic state is 1-A1.
 Alpha  occ. eigenvalues --  -20.52467  -1.38253  -0.80871  -0.54432  -0.49874
 Alpha virt. eigenvalues --    0.23879   0.32303   1.00756   1.14918   1.15166
 Alpha virt. eigenvalues --    1.16382   1.27135   1.46714   1.48437   1.87789
 Alpha virt. eigenvalues --    1.88512   1.98915   2.76148   2.90538   3.44678

 Mulliken charges:
               1
     1  O   -0.524390
     2  H    0.262195
     3  H    0.262195
 Sum of Mulliken charges =   0.00000

 Dipole moment (field-independent basis, Debye):
    X=              0.0000    Y=              0.0000    Z=             -1.6742  Tot=              1.6742
 Quadrupole moment (field-independent basis, Debye-Ang):
   XX=             -6.8742   YY=             -3.6062   ZZ=             -6.3528
   XY=              0.0000   XZ=              0.0000   YZ=              0.0000

 Normal termination of Gaussian 09 at Mon Sep 29 16:23:35 2014.
