 Gaussian 09, Revision D.01,
 Gaussian 09:  ES64L-G09RevD.01 24-Apr-2013

 -----------------
 #RHF 6-31G(d',p')
 -----------------

 ------------------
 H2O.r1.70theta83.0
 ------------------
 Symbolic Z-matrix:
 Charge =  0 Multiplicity = 1

                         Standard orientation:
 ---------------------------------------------------------------------
 Center     Atomic      Atomic             Coordinates (Angstroms)
 Number     Number       Type             X           Y           Z
 ---------------------------------------------------------------------
      1          8           0        0.000000    0.000000    0.254645
      2          1           0        0.000000    1.126454   -1.018580
      3          1           0        0.000000   -1.126454   -1.018580
 ---------------------------------------------------------------------

 SCF Done:  E(RHF) =  -75.6854035701     A.U. after   12 cycles

 The electronic state is 1-A1.
 Alpha  occ. eigenvalues --  -20.66338  -1.20799  -0.50918  -0.47055  -0.45655
 Alpha virt. eigenvalues --    0.03473   0.04021   0.92069   0.98539   1.11524
 Alpha virt. eigenvalues --    1.17671   1.22251   1.25546   1.50653   1.52034
 Alpha virt. eigenvalues --    1.58525   1.60213   1.72119   2.11746   3.19054

 Mulliken charges:
               1
     1  O   -0.388449
     2  H    0.194224
     3  H    0.194224
 Sum of Mulliken charges =   0.00000

 Dipole moment (field-independent basis, Debye):
    X=              0.0000    Y=              0.0000    Z=             -2.5824  Tot=              2.5824
 Quadrupole moment (field-independent basis, Debye-Ang):
   XX=             -8.3765   YY=             -4.4241   ZZ=             -4.6893
   XY=              0.0000   XZ=              0.0000   YZ=              0.0000

 Normal termination of Gaussian 09 at Mon Sep 29 16:40:22 2014.
