 Gaussian 09, Revision D.01,
 Gaussian 09:  ES64L-G09RevD.01 24-Apr-2013

 -----------------
 #RHF 6-31G(d',p')
 -----------------

 ------------------
 H2O.r1.85theta91.0
 ------------------
 Symbolic Z-matrix:
 Charge =  0 Multiplicity = 1

                         Standard orientation:
 ---------------------------------------------------------------------
 Center     Atomic      Atomic             Coordinates (Angstroms)
 Number     Number       Type             X           Y           Z
 ---------------------------------------------------------------------
      1          8           0        0.000000    0.000000    0.259336
      2          1           0        0.000000    1.319513   -1.037346
      3          1           0        0.000000   -1.319513   -1.037346
 ---------------------------------------------------------------------

 SCF Done:  E(RHF) =  -75.6215675830     A.U. after   13 cycles

 The electronic state is 1-A1.
 Alpha  occ. eigenvalues --  -20.67083  -1.20235  -0.51106  -0.45158  -0.42625
 Alpha virt. eigenvalues --    0.00335   0.00977   0.93181   1.00991   1.12567
 Alpha virt. eigenvalues --    1.15769   1.19112   1.19912   1.50139   1.52133
 Alpha virt. eigenvalues --    1.52207   1.55860   1.74995   2.03769   3.18130

 Mulliken charges:
               1
     1  O   -0.353354
     2  H    0.176677
     3  H    0.176677
 Sum of Mulliken charges =   0.00000

 Dipole moment (field-independent basis, Debye):
    X=              0.0000    Y=              0.0000    Z=             -2.4461  Tot=              2.4461
 Quadrupole moment (field-independent basis, Debye-Ang):
   XX=             -8.4748   YY=             -3.5145   ZZ=             -4.8906
   XY=              0.0000   XZ=              0.0000   YZ=              0.0000

 Normal termination of Gaussian 09 at Mon Sep 29 16:43:26 2014.
