 Gaussian 09, Revision D.01,
 Gaussian 09:  ES64L-G09RevD.01 24-Apr-2013

 -----------------
 #RHF 6-31G(d',p')
 -----------------

 -------------------
 H2O.r1.75theta117.0
 -------------------
 Symbolic Z-matrix:
 Charge =  0 Multiplicity = 1

                         Standard orientation:
 ---------------------------------------------------------------------
 Center     Atomic      Atomic             Coordinates (Angstroms)
 Number     Number       Type             X           Y           Z
 ---------------------------------------------------------------------
      1          8           0        0.000000    0.000000    0.182874
      2          1           0        0.000000    1.492120   -0.731498
      3          1           0        0.000000   -1.492120   -0.731498
 ---------------------------------------------------------------------

 SCF Done:  E(RHF) =  -75.6537907018     A.U. after   13 cycles

 The electronic state is 1-A1.
 Alpha  occ. eigenvalues --  -20.65128  -1.19330  -0.49756  -0.45495  -0.43662
 Alpha virt. eigenvalues --   -0.00700   0.06406   0.94009   0.97634   1.12787
 Alpha virt. eigenvalues --    1.17847   1.20604   1.26251   1.50079   1.50359
 Alpha virt. eigenvalues --    1.54637   1.58332   1.86825   1.97615   3.20351

 Mulliken charges:
               1
     1  O   -0.421475
     2  H    0.210738
     3  H    0.210738
 Sum of Mulliken charges =   0.00000

 Dipole moment (field-independent basis, Debye):
    X=              0.0000    Y=              0.0000    Z=             -1.9828  Tot=              1.9828
 Quadrupole moment (field-independent basis, Debye-Ang):
   XX=             -8.3888   YY=             -1.3006   ZZ=             -6.3980
   XY=              0.0000   XZ=              0.0000   YZ=              0.0000

 Normal termination of Gaussian 09 at Mon Sep 29 16:41:44 2014.
