 Gaussian 09, Revision D.01,
 Gaussian 09:  ES64L-G09RevD.01 24-Apr-2013

 -----------------
 #RHF 6-31G(d',p')
 -----------------

 ------------------
 H2O.r0.95theta83.0
 ------------------
 Symbolic Z-matrix:
 Charge =  0 Multiplicity = 1

                         Standard orientation:
 ---------------------------------------------------------------------
 Center     Atomic      Atomic             Coordinates (Angstroms)
 Number     Number       Type             X           Y           Z
 ---------------------------------------------------------------------
      1          8           0        0.000000    0.000000    0.142302
      2          1           0        0.000000    0.629489   -0.569206
      3          1           0        0.000000   -0.629489   -0.569206
 ---------------------------------------------------------------------

 SCF Done:  E(RHF) =  -76.0095002908     A.U. after   10 cycles

 The electronic state is 1-A1.
 Alpha  occ. eigenvalues --  -20.56521  -1.36442  -0.66063  -0.61574  -0.50510
 Alpha virt. eigenvalues --    0.20730   0.30623   0.95500   1.05512   1.16386
 Alpha virt. eigenvalues --    1.23563   1.27059   1.30120   1.57725   1.61181
 Alpha virt. eigenvalues --    1.64339   2.11049   2.53638   2.59540   3.48425

 Mulliken charges:
               1
     1  O   -0.477290
     2  H    0.238645
     3  H    0.238645
 Sum of Mulliken charges =   0.00000

 Dipole moment (field-independent basis, Debye):
    X=              0.0000    Y=              0.0000    Z=             -2.4650  Tot=              2.4650
 Quadrupole moment (field-independent basis, Debye-Ang):
   XX=             -7.0973   YY=             -5.1163   ZZ=             -5.4120
   XY=              0.0000   XZ=              0.0000   YZ=              0.0000

 Normal termination of Gaussian 09 at Mon Sep 29 16:25:08 2014.
