 Gaussian 09, Revision D.01,
 Gaussian 09:  ES64L-G09RevD.01 24-Apr-2013

 -----------------
 #RHF 6-31G(d',p')
 -----------------

 -------------------
 H2O.r1.40theta149.0
 -------------------
 Symbolic Z-matrix:
 Charge =  0 Multiplicity = 1

                         Standard orientation:
 ---------------------------------------------------------------------
 Center     Atomic      Atomic             Coordinates (Angstroms)
 Number     Number       Type             X           Y           Z
 ---------------------------------------------------------------------
      1          8           0        0.000000    0.000000    0.074827
      2          1           0        0.000000    1.349083   -0.299307
      3          1           0        0.000000   -1.349083   -0.299307
 ---------------------------------------------------------------------

 SCF Done:  E(RHF) =  -75.7808216206     A.U. after   12 cycles

 The electronic state is 1-A1.
 Alpha  occ. eigenvalues --  -20.56961  -1.18011  -0.53610  -0.45311  -0.43439
 Alpha virt. eigenvalues --    0.03242   0.20104   0.90313   0.93896   1.15192
 Alpha virt. eigenvalues --    1.16456   1.40064   1.41371   1.47072   1.60971
 Alpha virt. eigenvalues --    1.64880   1.68037   1.85094   2.10999   3.25910

 Mulliken charges:
               1
     1  O   -0.684734
     2  H    0.342367
     3  H    0.342367
 Sum of Mulliken charges =   0.00000

 Dipole moment (field-independent basis, Debye):
    X=              0.0000    Y=              0.0000    Z=             -1.2346  Tot=              1.2346
 Quadrupole moment (field-independent basis, Debye-Ang):
   XX=             -8.0273   YY=              0.3178   ZZ=             -7.5621
   XY=              0.0000   XZ=              0.0000   YZ=              0.0000

 Normal termination of Gaussian 09 at Mon Sep 29 16:35:00 2014.
