 Gaussian 09, Revision D.01,
 Gaussian 09:  ES64L-G09RevD.01 24-Apr-2013

 -----------------
 #RHF 6-31G(d',p')
 -----------------

 -------------------
 H2O.r1.25theta154.0
 -------------------
 Symbolic Z-matrix:
 Charge =  0 Multiplicity = 1

                         Standard orientation:
 ---------------------------------------------------------------------
 Center     Atomic      Atomic             Coordinates (Angstroms)
 Number     Number       Type             X           Y           Z
 ---------------------------------------------------------------------
      1          8           0        0.000000    0.000000    0.056238
      2          1           0        0.000000    1.217963   -0.224951
      3          1           0        0.000000   -1.217963   -0.224951
 ---------------------------------------------------------------------

 SCF Done:  E(RHF) =  -75.8540186564     A.U. after   11 cycles

 The electronic state is 1-A1.
 Alpha  occ. eigenvalues --  -20.54163  -1.19594  -0.59121  -0.44512  -0.44055
 Alpha virt. eigenvalues --    0.07677   0.24842   0.87711   0.96767   1.17309
 Alpha virt. eigenvalues --    1.17604   1.38982   1.44912   1.45037   1.70657
 Alpha virt. eigenvalues --    1.72377   1.73108   1.93293   2.24359   3.27098

 Mulliken charges:
               1
     1  O   -0.767557
     2  H    0.383778
     3  H    0.383778
 Sum of Mulliken charges =   0.00000

 Dipole moment (field-independent basis, Debye):
    X=              0.0000    Y=              0.0000    Z=             -1.1015  Tot=              1.1015
 Quadrupole moment (field-independent basis, Debye-Ang):
   XX=             -7.7902   YY=             -0.0558   ZZ=             -7.5212
   XY=              0.0000   XZ=              0.0000   YZ=              0.0000

 Normal termination of Gaussian 09 at Mon Sep 29 16:31:53 2014.
