 Gaussian 09, Revision D.01,
 Gaussian 09:  ES64L-G09RevD.01 24-Apr-2013

 -----------------
 #RHF 6-31G(d',p')
 -----------------

 ------------------
 H2O.r1.55theta71.0
 ------------------
 Symbolic Z-matrix:
 Charge =  0 Multiplicity = 1

                         Standard orientation:
 ---------------------------------------------------------------------
 Center     Atomic      Atomic             Coordinates (Angstroms)
 Number     Number       Type             X           Y           Z
 ---------------------------------------------------------------------
      1          8           0        0.000000    0.000000    0.252376
      2          1           0        0.000000    0.900090   -1.009503
      3          1           0        0.000000   -0.900090   -1.009503
 ---------------------------------------------------------------------

 SCF Done:  E(RHF) =  -75.7527186631     A.U. after   12 cycles

 The electronic state is 1-A1.
 Alpha  occ. eigenvalues --  -20.65203  -1.21869  -0.50799  -0.49803  -0.49149
 Alpha virt. eigenvalues --    0.07256   0.07357   0.92462   0.95459   1.10475
 Alpha virt. eigenvalues --    1.17811   1.24490   1.30410   1.47767   1.53552
 Alpha virt. eigenvalues --    1.57927   1.66786   1.87288   2.07002   3.20657

 Mulliken charges:
               1
     1  O   -0.416408
     2  H    0.208204
     3  H    0.208204
 Sum of Mulliken charges =   0.00000

 Dipole moment (field-independent basis, Debye):
    X=              0.0000    Y=              0.0000    Z=             -2.6926  Tot=              2.6926
 Quadrupole moment (field-independent basis, Debye-Ang):
   XX=             -8.2340   YY=             -5.4623   ZZ=             -4.4234
   XY=              0.0000   XZ=              0.0000   YZ=              0.0000

 Normal termination of Gaussian 09 at Mon Sep 29 16:37:11 2014.
