 Gaussian 09, Revision D.01,
 Gaussian 09:  ES64L-G09RevD.01 24-Apr-2013

 -----------------
 #RHF 6-31G(d',p')
 -----------------

 -------------------
 H2O.r1.10theta106.0
 -------------------
 Symbolic Z-matrix:
 Charge =  0 Multiplicity = 1

                         Standard orientation:
 ---------------------------------------------------------------------
 Center     Atomic      Atomic             Coordinates (Angstroms)
 Number     Number       Type             X           Y           Z
 ---------------------------------------------------------------------
      1          8           0        0.000000    0.000000    0.132399
      2          1           0        0.000000    0.878499   -0.529597
      3          1           0        0.000000   -0.878499   -0.529597
 ---------------------------------------------------------------------

 SCF Done:  E(RHF) =  -75.9839698903     A.U. after   10 cycles

 The electronic state is 1-A1.
 Alpha  occ. eigenvalues --  -20.58106  -1.27950  -0.63735  -0.54093  -0.49005
 Alpha virt. eigenvalues --    0.17724   0.26252   0.94968   0.97535   1.15941
 Alpha virt. eigenvalues --    1.16514   1.25080   1.42342   1.48817   1.70770
 Alpha virt. eigenvalues --    1.74184   1.83724   2.20915   2.25372   3.37874

 Mulliken charges:
               1
     1  O   -0.565290
     2  H    0.282645
     3  H    0.282645
 Sum of Mulliken charges =   0.00000

 Dipole moment (field-independent basis, Debye):
    X=              0.0000    Y=              0.0000    Z=             -2.2476  Tot=              2.2476
 Quadrupole moment (field-independent basis, Debye-Ang):
   XX=             -7.4612   YY=             -3.7644   ZZ=             -6.0845
   XY=              0.0000   XZ=              0.0000   YZ=              0.0000

 Normal termination of Gaussian 09 at Mon Sep 29 16:28:23 2014.
