 Gaussian 09, Revision D.01,
 Gaussian 09:  ES64L-G09RevD.01 24-Apr-2013

 -----------------
 #RHF 6-31G(d',p')
 -----------------

 -------------------
 H2O.r1.00theta110.0
 -------------------
 Symbolic Z-matrix:
 Charge =  0 Multiplicity = 1

                         Standard orientation:
 ---------------------------------------------------------------------
 Center     Atomic      Atomic             Coordinates (Angstroms)
 Number     Number       Type             X           Y           Z
 ---------------------------------------------------------------------
      1          8           0        0.000000    0.000000    0.114715
      2          1           0        0.000000    0.819152   -0.458861
      3          1           0        0.000000   -0.819152   -0.458861
 ---------------------------------------------------------------------

 SCF Done:  E(RHF) =  -76.0166144516     A.U. after   10 cycles

 The electronic state is 1-A1.
 Alpha  occ. eigenvalues --  -20.56119  -1.31541  -0.69079  -0.55014  -0.49203
 Alpha virt. eigenvalues --    0.20330   0.29417   0.98034   1.00951   1.16496
 Alpha virt. eigenvalues --    1.16981   1.24909   1.43007   1.49080   1.73913
 Alpha virt. eigenvalues --    1.75652   1.90717   2.42181   2.42306   3.43654

 Mulliken charges:
               1
     1  O   -0.555433
     2  H    0.277716
     3  H    0.277716
 Sum of Mulliken charges =   0.00000

 Dipole moment (field-independent basis, Debye):
    X=              0.0000    Y=              0.0000    Z=             -2.1171  Tot=              2.1171
 Quadrupole moment (field-independent basis, Debye-Ang):
   XX=             -7.2343   YY=             -3.7917   ZZ=             -6.1607
   XY=              0.0000   XZ=              0.0000   YZ=              0.0000

 Normal termination of Gaussian 09 at Mon Sep 29 16:26:26 2014.
