 Gaussian 09, Revision D.01,
 Gaussian 09:  ES64L-G09RevD.01 24-Apr-2013

 -----------------
 #RHF 6-31G(d',p')
 -----------------

 -------------------
 H2O.r1.10theta101.0
 -------------------
 Symbolic Z-matrix:
 Charge =  0 Multiplicity = 1

                         Standard orientation:
 ---------------------------------------------------------------------
 Center     Atomic      Atomic             Coordinates (Angstroms)
 Number     Number       Type             X           Y           Z
 ---------------------------------------------------------------------
      1          8           0        0.000000    0.000000    0.139937
      2          1           0        0.000000    0.848787   -0.559749
      3          1           0        0.000000   -0.848787   -0.559749
 ---------------------------------------------------------------------

 SCF Done:  E(RHF) =  -75.9846886342     A.U. after   10 cycles

 The electronic state is 1-A1.
 Alpha  occ. eigenvalues --  -20.58447  -1.28300  -0.63056  -0.55036  -0.49250
 Alpha virt. eigenvalues --    0.17833   0.26007   0.95824   0.96389   1.15719
 Alpha virt. eigenvalues --    1.16908   1.25486   1.41193   1.50037   1.68823
 Alpha virt. eigenvalues --    1.71665   1.85612   2.20607   2.25190   3.39301

 Mulliken charges:
               1
     1  O   -0.550861
     2  H    0.275431
     3  H    0.275431
 Sum of Mulliken charges =   0.00000

 Dipole moment (field-independent basis, Debye):
    X=              0.0000    Y=              0.0000    Z=             -2.3294  Tot=              2.3294
 Quadrupole moment (field-independent basis, Debye-Ang):
   XX=             -7.4589   YY=             -4.0519   ZZ=             -5.9255
   XY=              0.0000   XZ=              0.0000   YZ=              0.0000

 Normal termination of Gaussian 09 at Mon Sep 29 16:28:20 2014.
