 Gaussian 09, Revision D.01,
 Gaussian 09:  ES64L-G09RevD.01 24-Apr-2013

 -----------------
 #RHF 6-31G(d',p')
 -----------------

 -------------------
 H2O.r0.85theta150.0
 -------------------
 Symbolic Z-matrix:
 Charge =  0 Multiplicity = 1

                         Standard orientation:
 ---------------------------------------------------------------------
 Center     Atomic      Atomic             Coordinates (Angstroms)
 Number     Number       Type             X           Y           Z
 ---------------------------------------------------------------------
      1          8           0        0.000000    0.000000    0.043999
      2          1           0        0.000000    0.821037   -0.175997
      3          1           0        0.000000   -0.821037   -0.175997
 ---------------------------------------------------------------------

 SCF Done:  E(RHF) =  -75.9714138041     A.U. after   10 cycles

 The electronic state is 1-A1.
 Alpha  occ. eigenvalues --  -20.51223  -1.36473  -0.83669  -0.50532  -0.49057
 Alpha virt. eigenvalues --    0.23863   0.31747   0.91597   1.16319   1.16954
 Alpha virt. eigenvalues --    1.23333   1.32047   1.44651   1.48670   1.90778
 Alpha virt. eigenvalues --    1.97725   1.97949   2.69435   3.09883   3.29361

 Mulliken charges:
               1
     1  O   -0.591235
     2  H    0.295617
     3  H    0.295617
 Sum of Mulliken charges =   0.00000

 Dipole moment (field-independent basis, Debye):
    X=              0.0000    Y=              0.0000    Z=             -1.0585  Tot=              1.0585
 Quadrupole moment (field-independent basis, Debye-Ang):
   XX=             -6.8967   YY=             -2.9306   ZZ=             -6.7271
   XY=              0.0000   XZ=              0.0000   YZ=              0.0000

 Normal termination of Gaussian 09 at Mon Sep 29 16:23:51 2014.
