 Gaussian 09, Revision D.01,
 Gaussian 09:  ES64L-G09RevD.01 24-Apr-2013

 -----------------
 #RHF 6-31G(d',p')
 -----------------

 -------------------
 H2O.r1.30theta130.0
 -------------------
 Symbolic Z-matrix:
 Charge =  0 Multiplicity = 1

                         Standard orientation:
 ---------------------------------------------------------------------
 Center     Atomic      Atomic             Coordinates (Angstroms)
 Number     Number       Type             X           Y           Z
 ---------------------------------------------------------------------
      1          8           0        0.000000    0.000000    0.109881
      2          1           0        0.000000    1.178200   -0.439523
      3          1           0        0.000000   -1.178200   -0.439523
 ---------------------------------------------------------------------

 SCF Done:  E(RHF) =  -75.8621231092     A.U. after   11 cycles

 The electronic state is 1-A1.
 Alpha  occ. eigenvalues --  -20.58676  -1.21347  -0.57397  -0.47240  -0.47100
 Alpha virt. eigenvalues --    0.09243   0.21379   0.89751   0.96998   1.14728
 Alpha virt. eigenvalues --    1.16048   1.31377   1.42529   1.46911   1.68589
 Alpha virt. eigenvalues --    1.69216   1.70704   2.01034   2.01466   3.26277

 Mulliken charges:
               1
     1  O   -0.627060
     2  H    0.313530
     3  H    0.313530
 Sum of Mulliken charges =   0.00000

 Dipole moment (field-independent basis, Debye):
    X=              0.0000    Y=              0.0000    Z=             -1.7803  Tot=              1.7803
 Quadrupole moment (field-independent basis, Debye-Ang):
   XX=             -7.8617   YY=             -1.5670   ZZ=             -6.9437
   XY=              0.0000   XZ=              0.0000   YZ=              0.0000

 Normal termination of Gaussian 09 at Mon Sep 29 16:32:39 2014.
