 Gaussian 09, Revision D.01,
 Gaussian 09:  ES64L-G09RevD.01 24-Apr-2013

 -----------------
 #RHF 6-31G(d',p')
 -----------------

 ------------------
 H2O.r1.30theta71.0
 ------------------
 Symbolic Z-matrix:
 Charge =  0 Multiplicity = 1

                         Standard orientation:
 ---------------------------------------------------------------------
 Center     Atomic      Atomic             Coordinates (Angstroms)
 Number     Number       Type             X           Y           Z
 ---------------------------------------------------------------------
      1          8           0        0.000000    0.000000    0.211670
      2          1           0        0.000000    0.754914   -0.846680
      3          1           0        0.000000   -0.754914   -0.846680
 ---------------------------------------------------------------------

 SCF Done:  E(RHF) =  -75.8728366267     A.U. after   11 cycles

 The electronic state is 1-A1.
 Alpha  occ. eigenvalues --  -20.62674  -1.24881  -0.56009  -0.52963  -0.50310
 Alpha virt. eigenvalues --    0.12408   0.16731   0.92847   0.93370   1.11359
 Alpha virt. eigenvalues --    1.18720   1.26077   1.27416   1.55956   1.58062
 Alpha virt. eigenvalues --    1.63884   1.75632   2.01610   2.15367   3.25432

 Mulliken charges:
               1
     1  O   -0.479894
     2  H    0.239947
     3  H    0.239947
 Sum of Mulliken charges =   0.00000

 Dipole moment (field-independent basis, Debye):
    X=              0.0000    Y=              0.0000    Z=             -2.7616  Tot=              2.7616
 Quadrupole moment (field-independent basis, Debye-Ang):
   XX=             -7.8499   YY=             -5.6286   ZZ=             -4.7367
   XY=              0.0000   XZ=              0.0000   YZ=              0.0000

 Normal termination of Gaussian 09 at Mon Sep 29 16:31:59 2014.
