 Gaussian 09, Revision D.01,
 Gaussian 09:  ES64L-G09RevD.01 24-Apr-2013

 -----------------
 #RHF 6-31G(d',p')
 -----------------

 ------------------
 H2O.r1.20theta91.0
 ------------------
 Symbolic Z-matrix:
 Charge =  0 Multiplicity = 1

                         Standard orientation:
 ---------------------------------------------------------------------
 Center     Atomic      Atomic             Coordinates (Angstroms)
 Number     Number       Type             X           Y           Z
 ---------------------------------------------------------------------
      1          8           0        0.000000    0.000000    0.168218
      2          1           0        0.000000    0.855901   -0.672873
      3          1           0        0.000000   -0.855901   -0.672873
 ---------------------------------------------------------------------

 SCF Done:  E(RHF) =  -75.9363346765     A.U. after   10 cycles

 The electronic state is 1-A1.
 Alpha  occ. eigenvalues --  -20.60644  -1.26034  -0.57975  -0.54963  -0.49607
 Alpha virt. eigenvalues --    0.15265   0.21703   0.94035   0.94114   1.13875
 Alpha virt. eigenvalues --    1.17425   1.26752   1.38432   1.51745   1.64899
 Alpha virt. eigenvalues --    1.68440   1.80968   2.06318   2.11952   3.32341

 Mulliken charges:
               1
     1  O   -0.529634
     2  H    0.264817
     3  H    0.264817
 Sum of Mulliken charges =   0.00000

 Dipole moment (field-independent basis, Debye):
    X=              0.0000    Y=              0.0000    Z=             -2.5204  Tot=              2.5204
 Quadrupole moment (field-independent basis, Debye-Ang):
   XX=             -7.6674   YY=             -4.4989   ZZ=             -5.5537
   XY=              0.0000   XZ=              0.0000   YZ=              0.0000

 Normal termination of Gaussian 09 at Mon Sep 29 16:30:12 2014.
