 Gaussian 09, Revision D.01,
 Gaussian 09:  ES64L-G09RevD.01 24-Apr-2013

 -----------------
 #RHF 6-31G(d',p')
 -----------------

 -------------------
 H2O.r1.05theta126.0
 -------------------
 Symbolic Z-matrix:
 Charge =  0 Multiplicity = 1

                         Standard orientation:
 ---------------------------------------------------------------------
 Center     Atomic      Atomic             Coordinates (Angstroms)
 Number     Number       Type             X           Y           Z
 ---------------------------------------------------------------------
      1          8           0        0.000000    0.000000    0.095338
      2          1           0        0.000000    0.935557   -0.381352
      3          1           0        0.000000   -0.935557   -0.381352
 ---------------------------------------------------------------------

 SCF Done:  E(RHF) =  -75.9903974914     A.U. after   10 cycles

 The electronic state is 1-A1.
 Alpha  occ. eigenvalues --  -20.55640  -1.28219  -0.68351  -0.51126  -0.48037
 Alpha virt. eigenvalues --    0.18288   0.28483   0.92020   1.04159   1.16427
 Alpha virt. eigenvalues --    1.17384   1.24464   1.44344   1.45622   1.77842
 Alpha virt. eigenvalues --    1.81240   1.81696   2.31982   2.38140   3.34261

 Mulliken charges:
               1
     1  O   -0.624234
     2  H    0.312117
     3  H    0.312117
 Sum of Mulliken charges =   0.00000

 Dipole moment (field-independent basis, Debye):
    X=              0.0000    Y=              0.0000    Z=             -1.8327  Tot=              1.8327
 Quadrupole moment (field-independent basis, Debye-Ang):
   XX=             -7.3628   YY=             -2.8125   ZZ=             -6.6283
   XY=              0.0000   XZ=              0.0000   YZ=              0.0000

 Normal termination of Gaussian 09 at Mon Sep 29 16:27:37 2014.
