 Gaussian 09, Revision D.01,
 Gaussian 09:  ES64L-G09RevD.01 24-Apr-2013

 -----------------
 #RHF 6-31G(d',p')
 -----------------

 ------------------
 H2O.r0.75theta73.0
 ------------------
 Symbolic Z-matrix:
 Charge =  0 Multiplicity = 1

                         Standard orientation:
 ---------------------------------------------------------------------
 Center     Atomic      Atomic             Coordinates (Angstroms)
 Number     Number       Type             X           Y           Z
 ---------------------------------------------------------------------
      1          8           0        0.000000    0.000000    0.120579
      2          1           0        0.000000    0.446117   -0.482314
      3          1           0        0.000000   -0.446117   -0.482314
 ---------------------------------------------------------------------

 SCF Done:  E(RHF) =  -75.8359480557     A.U. after    9 cycles

 The electronic state is 1-A1.
 Alpha  occ. eigenvalues --  -20.52470  -1.53638  -0.72544  -0.67753  -0.52671
 Alpha virt. eigenvalues --    0.22927   0.35719   0.98175   1.09619   1.12446
 Alpha virt. eigenvalues --    1.25295   1.35283   1.47518   1.59975   1.75313
 Alpha virt. eigenvalues --    1.75863   2.48737   3.01338   3.29308   3.66336

 Mulliken charges:
               1
     1  O   -0.396840
     2  H    0.198420
     3  H    0.198420
 Sum of Mulliken charges =   0.00000

 Dipole moment (field-independent basis, Debye):
    X=              0.0000    Y=              0.0000    Z=             -2.3261  Tot=              2.3261
 Quadrupole moment (field-independent basis, Debye-Ang):
   XX=             -6.6033   YY=             -5.4161   ZZ=             -5.1916
   XY=              0.0000   XZ=              0.0000   YZ=              0.0000

 Normal termination of Gaussian 09 at Mon Sep 29 16:20:38 2014.
