 Gaussian 09, Revision D.01,
 Gaussian 09:  ES64L-G09RevD.01 24-Apr-2013

 -----------------
 #RHF 6-31G(d',p')
 -----------------

 ------------------
 H2O.r0.70theta87.0
 ------------------
 Symbolic Z-matrix:
 Charge =  0 Multiplicity = 1

                         Standard orientation:
 ---------------------------------------------------------------------
 Center     Atomic      Atomic             Coordinates (Angstroms)
 Number     Number       Type             X           Y           Z
 ---------------------------------------------------------------------
      1          8           0        0.000000    0.000000    0.101552
      2          1           0        0.000000    0.481848   -0.406210
      3          1           0        0.000000   -0.481848   -0.406210
 ---------------------------------------------------------------------

 SCF Done:  E(RHF) =  -75.7570942271     A.U. after    9 cycles

 The electronic state is 1-A1.
 Alpha  occ. eigenvalues --  -20.51006  -1.55226  -0.80731  -0.65471  -0.52889
 Alpha virt. eigenvalues --    0.24364   0.35761   1.02573   1.08618   1.10476
 Alpha virt. eigenvalues --    1.37916   1.38956   1.47203   1.69907   1.73391
 Alpha virt. eigenvalues --    1.74249   2.45813   3.12878   3.42127   3.78104

 Mulliken charges:
               1
     1  O   -0.370633
     2  H    0.185316
     3  H    0.185316
 Sum of Mulliken charges =   0.00000

 Dipole moment (field-independent basis, Debye):
    X=              0.0000    Y=              0.0000    Z=             -2.0888  Tot=              2.0888
 Quadrupole moment (field-independent basis, Debye-Ang):
   XX=             -6.4709   YY=             -4.9903   ZZ=             -5.4142
   XY=              0.0000   XZ=              0.0000   YZ=              0.0000

 Normal termination of Gaussian 09 at Mon Sep 29 16:19:45 2014.
