 Gaussian 09, Revision D.01,
 Gaussian 09:  ES64L-G09RevD.01 24-Apr-2013

 -----------------
 #RHF 6-31G(d',p')
 -----------------

 ------------------
 H2O.r1.50theta97.0
 ------------------
 Symbolic Z-matrix:
 Charge =  0 Multiplicity = 1

                         Standard orientation:
 ---------------------------------------------------------------------
 Center     Atomic      Atomic             Coordinates (Angstroms)
 Number     Number       Type             X           Y           Z
 ---------------------------------------------------------------------
      1          8           0        0.000000    0.000000    0.198786
      2          1           0        0.000000    1.123434   -0.795144
      3          1           0        0.000000   -1.123434   -0.795144
 ---------------------------------------------------------------------

 SCF Done:  E(RHF) =  -75.7798138812     A.U. after   11 cycles

 The electronic state is 1-A1.
 Alpha  occ. eigenvalues --  -20.64208  -1.21336  -0.50337  -0.49925  -0.48564
 Alpha virt. eigenvalues --    0.07032   0.11241   0.90633   0.96555   1.11644
 Alpha virt. eigenvalues --    1.17432   1.28359   1.36724   1.50257   1.58198
 Alpha virt. eigenvalues --    1.63238   1.63928   1.75581   2.10636   3.22416

 Mulliken charges:
               1
     1  O   -0.476316
     2  H    0.238158
     3  H    0.238158
 Sum of Mulliken charges =   0.00000

 Dipole moment (field-independent basis, Debye):
    X=              0.0000    Y=              0.0000    Z=             -2.4406  Tot=              2.4406
 Quadrupole moment (field-independent basis, Debye-Ang):
   XX=             -8.1549   YY=             -3.5965   ZZ=             -5.5743
   XY=              0.0000   XZ=              0.0000   YZ=              0.0000

 Normal termination of Gaussian 09 at Mon Sep 29 16:36:26 2014.
