 Gaussian 09, Revision D.01,
 Gaussian 09:  ES64L-G09RevD.01 24-Apr-2013

 -----------------
 #RHF 6-31G(d',p')
 -----------------

 -------------------
 H2O.r0.75theta116.0
 -------------------
 Symbolic Z-matrix:
 Charge =  0 Multiplicity = 1

                         Standard orientation:
 ---------------------------------------------------------------------
 Center     Atomic      Atomic             Coordinates (Angstroms)
 Number     Number       Type             X           Y           Z
 ---------------------------------------------------------------------
      1          8           0        0.000000    0.000000    0.079488
      2          1           0        0.000000    0.636036   -0.317952
      3          1           0        0.000000   -0.636036   -0.317952
 ---------------------------------------------------------------------

 SCF Done:  E(RHF) =  -75.8926183848     A.U. after    9 cycles

 The electronic state is 1-A1.
 Alpha  occ. eigenvalues --  -20.51053  -1.46150  -0.86337  -0.58227  -0.51463
 Alpha virt. eigenvalues --    0.25294   0.33846   1.10011   1.13245   1.13662
 Alpha virt. eigenvalues --    1.18384   1.33068   1.47653   1.54813   1.86096
 Alpha virt. eigenvalues --    1.90843   2.17590   3.11292   3.15073   3.60703

 Mulliken charges:
               1
     1  O   -0.420971
     2  H    0.210486
     3  H    0.210486
 Sum of Mulliken charges =   0.00000

 Dipole moment (field-independent basis, Debye):
    X=              0.0000    Y=              0.0000    Z=             -1.7522  Tot=              1.7522
 Quadrupole moment (field-independent basis, Debye-Ang):
   XX=             -6.6011   YY=             -4.1810   ZZ=             -5.9987
   XY=              0.0000   XZ=              0.0000   YZ=              0.0000

 Normal termination of Gaussian 09 at Mon Sep 29 16:21:09 2014.
