 Gaussian 09, Revision D.01,
 Gaussian 09:  ES64L-G09RevD.01 24-Apr-2013

 -----------------
 #RHF 6-31G(d',p')
 -----------------

 -------------------
 H2O.r1.80theta105.0
 -------------------
 Symbolic Z-matrix:
 Charge =  0 Multiplicity = 1

                         Standard orientation:
 ---------------------------------------------------------------------
 Center     Atomic      Atomic             Coordinates (Angstroms)
 Number     Number       Type             X           Y           Z
 ---------------------------------------------------------------------
      1          8           0        0.000000    0.000000    0.219154
      2          1           0        0.000000    1.428036   -0.876616
      3          1           0        0.000000   -1.428036   -0.876616
 ---------------------------------------------------------------------

 SCF Done:  E(RHF) =  -75.6385561818     A.U. after   13 cycles

 The electronic state is 1-A1.
 Alpha  occ. eigenvalues --  -20.66286  -1.19806  -0.50488  -0.44807  -0.43584
 Alpha virt. eigenvalues --   -0.00214   0.03715   0.93541   0.99458   1.12650
 Alpha virt. eigenvalues --    1.17375   1.19681   1.22608   1.50199   1.50841
 Alpha virt. eigenvalues --    1.53395   1.57157   1.80786   2.01663   3.19107

 Mulliken charges:
               1
     1  O   -0.387618
     2  H    0.193809
     3  H    0.193809
 Sum of Mulliken charges =   0.00000

 Dipole moment (field-independent basis, Debye):
    X=              0.0000    Y=              0.0000    Z=             -2.2404  Tot=              2.2404
 Quadrupole moment (field-independent basis, Debye-Ang):
   XX=             -8.4274   YY=             -2.2775   ZZ=             -5.7246
   XY=              0.0000   XZ=              0.0000   YZ=              0.0000

 Normal termination of Gaussian 09 at Mon Sep 29 16:42:35 2014.
