 Gaussian 09, Revision D.01,
 Gaussian 09:  ES64L-G09RevD.01 24-Apr-2013

 -----------------
 #RHF 6-31G(d',p')
 -----------------

 -------------------
 H2O.r1.70theta157.0
 -------------------
 Symbolic Z-matrix:
 Charge =  0 Multiplicity = 1

                         Standard orientation:
 ---------------------------------------------------------------------
 Center     Atomic      Atomic             Coordinates (Angstroms)
 Number     Number       Type             X           Y           Z
 ---------------------------------------------------------------------
      1          8           0        0.000000    0.000000    0.067785
      2          1           0        0.000000    1.665872   -0.271140
      3          1           0        0.000000   -1.665872   -0.271140
 ---------------------------------------------------------------------

 SCF Done:  E(RHF) =  -75.6312836752     A.U. after   13 cycles

 The electronic state is 1-A1.
 Alpha  occ. eigenvalues --  -20.58924  -1.15662  -0.45573  -0.44728  -0.41417
 Alpha virt. eigenvalues --   -0.05418   0.12678   0.92865   0.95613   1.15144
 Alpha virt. eigenvalues --    1.16923   1.22749   1.33872   1.48441   1.48466
 Alpha virt. eigenvalues --    1.57811   1.58863   1.79526   2.13119   3.24350

 Mulliken charges:
               1
     1  O   -0.567277
     2  H    0.283639
     3  H    0.283639
 Sum of Mulliken charges =   0.00000

 Dipole moment (field-independent basis, Debye):
    X=              0.0000    Y=              0.0000    Z=             -0.8669  Tot=              0.8669
 Quadrupole moment (field-independent basis, Debye-Ang):
   XX=             -8.3524   YY=              2.1360   ZZ=             -7.9420
   XY=              0.0000   XZ=              0.0000   YZ=              0.0000

 Normal termination of Gaussian 09 at Mon Sep 29 16:41:11 2014.
