 Gaussian 09, Revision D.01,
 Gaussian 09:  ES64L-G09RevD.01 24-Apr-2013

 -----------------
 #RHF 6-31G(d',p')
 -----------------

 -------------------
 H2O.r1.60theta156.0
 -------------------
 Symbolic Z-matrix:
 Charge =  0 Multiplicity = 1

                         Standard orientation:
 ---------------------------------------------------------------------
 Center     Atomic      Atomic             Coordinates (Angstroms)
 Number     Number       Type             X           Y           Z
 ---------------------------------------------------------------------
      1          8           0        0.000000    0.000000    0.066532
      2          1           0        0.000000    1.565036   -0.266127
      3          1           0        0.000000   -1.565036   -0.266127
 ---------------------------------------------------------------------

 SCF Done:  E(RHF) =  -75.6741511756     A.U. after   12 cycles

 The electronic state is 1-A1.
 Alpha  occ. eigenvalues --  -20.58081  -1.15955  -0.47302  -0.45206  -0.41653
 Alpha virt. eigenvalues --   -0.03116   0.15075   0.92396   0.93941   1.14917
 Alpha virt. eigenvalues --    1.16599   1.28304   1.40781   1.48237   1.48903
 Alpha virt. eigenvalues --    1.60105   1.61764   1.79539   2.15070   3.25535

 Mulliken charges:
               1
     1  O   -0.616987
     2  H    0.308494
     3  H    0.308494
 Sum of Mulliken charges =   0.00000

 Dipole moment (field-independent basis, Debye):
    X=              0.0000    Y=              0.0000    Z=             -0.9308  Tot=              0.9308
 Quadrupole moment (field-independent basis, Debye-Ang):
   XX=             -8.2661   YY=              1.6935   ZZ=             -7.8646
   XY=              0.0000   XZ=              0.0000   YZ=              0.0000

 Normal termination of Gaussian 09 at Mon Sep 29 16:39:09 2014.
