 Gaussian 09, Revision D.01,
 Gaussian 09:  ES64L-G09RevD.01 24-Apr-2013

 -----------------
 #RHF 6-31G(d',p')
 -----------------

 -------------------
 H2O.r1.80theta115.0
 -------------------
 Symbolic Z-matrix:
 Charge =  0 Multiplicity = 1

                         Standard orientation:
 ---------------------------------------------------------------------
 Center     Atomic      Atomic             Coordinates (Angstroms)
 Number     Number       Type             X           Y           Z
 ---------------------------------------------------------------------
      1          8           0        0.000000    0.000000    0.193428
      2          1           0        0.000000    1.518105   -0.773711
      3          1           0        0.000000   -1.518105   -0.773711
 ---------------------------------------------------------------------

 SCF Done:  E(RHF) =  -75.6340718224     A.U. after   13 cycles

 The electronic state is 1-A1.
 Alpha  occ. eigenvalues --  -20.65615  -1.19342  -0.50012  -0.44574  -0.43288
 Alpha virt. eigenvalues --   -0.01449   0.05012   0.94431   0.98315   1.12977
 Alpha virt. eigenvalues --    1.17601   1.18926   1.23709   1.50063   1.50211
 Alpha virt. eigenvalues --    1.53805   1.57152   1.85597   1.96730   3.19903

 Mulliken charges:
               1
     1  O   -0.401983
     2  H    0.200991
     3  H    0.200991
 Sum of Mulliken charges =   0.00000

 Dipole moment (field-independent basis, Debye):
    X=              0.0000    Y=              0.0000    Z=             -2.0231  Tot=              2.0231
 Quadrupole moment (field-independent basis, Debye-Ang):
   XX=             -8.4234   YY=             -1.3433   ZZ=             -6.2708
   XY=              0.0000   XZ=              0.0000   YZ=              0.0000

 Normal termination of Gaussian 09 at Mon Sep 29 16:42:42 2014.
