 Gaussian 09, Revision D.01,
 Gaussian 09:  ES64L-G09RevD.01 24-Apr-2013

 -----------------
 #RHF 6-31G(d',p')
 -----------------

 ------------------
 H2O.r0.70theta98.0
 ------------------
 Symbolic Z-matrix:
 Charge =  0 Multiplicity = 1

                         Standard orientation:
 ---------------------------------------------------------------------
 Center     Atomic      Atomic             Coordinates (Angstroms)
 Number     Number       Type             X           Y           Z
 ---------------------------------------------------------------------
      1          8           0        0.000000    0.000000    0.091848
      2          1           0        0.000000    0.528297   -0.367393
      3          1           0        0.000000   -0.528297   -0.367393
 ---------------------------------------------------------------------

 SCF Done:  E(RHF) =  -75.7741972267     A.U. after    9 cycles

 The electronic state is 1-A1.
 Alpha  occ. eigenvalues --  -20.50684  -1.52960  -0.84735  -0.63012  -0.52589
 Alpha virt. eigenvalues --    0.25001   0.35194   1.06567   1.08805   1.10682
 Alpha virt. eigenvalues --    1.37382   1.38502   1.44394   1.64524   1.76732
 Alpha virt. eigenvalues --    1.82342   2.37276   3.17782   3.36709   3.80574

 Mulliken charges:
               1
     1  O   -0.369274
     2  H    0.184637
     3  H    0.184637
 Sum of Mulliken charges =   0.00000

 Dipole moment (field-independent basis, Debye):
    X=              0.0000    Y=              0.0000    Z=             -1.9538  Tot=              1.9538
 Quadrupole moment (field-independent basis, Debye-Ang):
   XX=             -6.4663   YY=             -4.7054   ZZ=             -5.6054
   XY=              0.0000   XZ=              0.0000   YZ=              0.0000

 Normal termination of Gaussian 09 at Mon Sep 29 16:19:52 2014.
