 Gaussian 09, Revision D.01,
 Gaussian 09:  ES64L-G09RevD.01 24-Apr-2013

 -----------------
 #RHF 6-31G(d',p')
 -----------------

 -------------------
 H2O.r1.80theta149.0
 -------------------
 Symbolic Z-matrix:
 Charge =  0 Multiplicity = 1

                         Standard orientation:
 ---------------------------------------------------------------------
 Center     Atomic      Atomic             Coordinates (Angstroms)
 Number     Number       Type             X           Y           Z
 ---------------------------------------------------------------------
      1          8           0        0.000000    0.000000    0.096206
      2          1           0        0.000000    1.734535   -0.384823
      3          1           0        0.000000   -1.734535   -0.384823
 ---------------------------------------------------------------------

 SCF Done:  E(RHF) =  -75.6033739487     A.U. after   13 cycles

 The electronic state is 1-A1.
 Alpha  occ. eigenvalues --  -20.61414  -1.16664  -0.47162  -0.43123  -0.41768
 Alpha virt. eigenvalues --   -0.06132   0.09347   0.94561   0.96692   1.14839
 Alpha virt. eigenvalues --    1.17219   1.18507   1.26624   1.48866   1.48910
 Alpha virt. eigenvalues --    1.55271   1.56521   1.81199   2.04592   3.22522

 Mulliken charges:
               1
     1  O   -0.485265
     2  H    0.242632
     3  H    0.242632
 Sum of Mulliken charges =   0.00000

 Dipole moment (field-independent basis, Debye):
    X=              0.0000    Y=              0.0000    Z=             -1.1049  Tot=              1.1049
 Quadrupole moment (field-independent basis, Debye-Ang):
   XX=             -8.4210   YY=              1.7406   ZZ=             -7.7548
   XY=              0.0000   XZ=              0.0000   YZ=              0.0000

 Normal termination of Gaussian 09 at Mon Sep 29 16:43:04 2014.
