 Gaussian 09, Revision D.01,
 Gaussian 09:  ES64L-G09RevD.01 24-Apr-2013

 -----------------
 #RHF 6-31G(d',p')
 -----------------

 ------------------
 H2O.r1.05theta75.0
 ------------------
 Symbolic Z-matrix:
 Charge =  0 Multiplicity = 1

                         Standard orientation:
 ---------------------------------------------------------------------
 Center     Atomic      Atomic             Coordinates (Angstroms)
 Number     Number       Type             X           Y           Z
 ---------------------------------------------------------------------
      1          8           0        0.000000    0.000000    0.166604
      2          1           0        0.000000    0.639200   -0.666417
      3          1           0        0.000000   -0.639200   -0.666417
 ---------------------------------------------------------------------

 SCF Done:  E(RHF) =  -75.9830480909     A.U. after   10 cycles

 The electronic state is 1-A1.
 Alpha  occ. eigenvalues --  -20.58738  -1.32182  -0.61188  -0.60342  -0.50319
 Alpha virt. eigenvalues --    0.18336   0.27021   0.93531   0.99725   1.15326
 Alpha virt. eigenvalues --    1.21211   1.26350   1.26854   1.52559   1.62442
 Alpha virt. eigenvalues --    1.64788   2.00463   2.37119   2.43739   3.38262

 Mulliken charges:
               1
     1  O   -0.487298
     2  H    0.243649
     3  H    0.243649
 Sum of Mulliken charges =   0.00000

 Dipole moment (field-independent basis, Debye):
    X=              0.0000    Y=              0.0000    Z=             -2.6454  Tot=              2.6454
 Quadrupole moment (field-independent basis, Debye-Ang):
   XX=             -7.3306   YY=             -5.4684   ZZ=             -5.1334
   XY=              0.0000   XZ=              0.0000   YZ=              0.0000

 Normal termination of Gaussian 09 at Mon Sep 29 16:27:02 2014.
