 Gaussian 09, Revision D.01,
 Gaussian 09:  ES64L-G09RevD.01 24-Apr-2013

 -----------------
 #RHF 6-31G(d',p')
 -----------------

 -------------------
 H2O.r1.70theta118.0
 -------------------
 Symbolic Z-matrix:
 Charge =  0 Multiplicity = 1

                         Standard orientation:
 ---------------------------------------------------------------------
 Center     Atomic      Atomic             Coordinates (Angstroms)
 Number     Number       Type             X           Y           Z
 ---------------------------------------------------------------------
      1          8           0        0.000000    0.000000    0.175113
      2          1           0        0.000000    1.457184   -0.700452
      3          1           0        0.000000   -1.457184   -0.700452
 ---------------------------------------------------------------------

 SCF Done:  E(RHF) =  -75.6747822704     A.U. after   13 cycles

 The electronic state is 1-A1.
 Alpha  occ. eigenvalues --  -20.64664  -1.19384  -0.49535  -0.46481  -0.44093
 Alpha virt. eigenvalues --    0.00214   0.07764   0.93457   0.97116   1.12610
 Alpha virt. eigenvalues --    1.17650   1.23079   1.28728   1.50062   1.50665
 Alpha virt. eigenvalues --    1.55473   1.59580   1.87214   1.98519   3.20770

 Mulliken charges:
               1
     1  O   -0.440759
     2  H    0.220379
     3  H    0.220379
 Sum of Mulliken charges =   0.00000

 Dipole moment (field-independent basis, Debye):
    X=              0.0000    Y=              0.0000    Z=             -1.9680  Tot=              1.9680
 Quadrupole moment (field-independent basis, Debye-Ang):
   XX=             -8.3504   YY=             -1.3496   ZZ=             -6.4681
   XY=              0.0000   XZ=              0.0000   YZ=              0.0000

 Normal termination of Gaussian 09 at Mon Sep 29 16:40:44 2014.
