 Gaussian 09, Revision D.01,
 Gaussian 09:  ES64L-G09RevD.01 24-Apr-2013

 -----------------
 #RHF 6-31G(d',p')
 -----------------

 -------------------
 H2O.r0.90theta130.0
 -------------------
 Symbolic Z-matrix:
 Charge =  0 Multiplicity = 1

                         Standard orientation:
 ---------------------------------------------------------------------
 Center     Atomic      Atomic             Coordinates (Angstroms)
 Number     Number       Type             X           Y           Z
 ---------------------------------------------------------------------
      1          8           0        0.000000    0.000000    0.076071
      2          1           0        0.000000    0.815677   -0.304285
      3          1           0        0.000000   -0.815677   -0.304285
 ---------------------------------------------------------------------

 SCF Done:  E(RHF) =  -76.0081481806     A.U. after   10 cycles

 The electronic state is 1-A1.
 Alpha  occ. eigenvalues --  -20.53064  -1.34971  -0.77920  -0.52813  -0.49126
 Alpha virt. eigenvalues --    0.22691   0.31491   0.96093   1.13908   1.15957
 Alpha virt. eigenvalues --    1.17298   1.25688   1.46260   1.46523   1.86716
 Alpha virt. eigenvalues --    1.87565   1.92136   2.61811   2.78301   3.39246

 Mulliken charges:
               1
     1  O   -0.572227
     2  H    0.286113
     3  H    0.286113
 Sum of Mulliken charges =   0.00000

 Dipole moment (field-independent basis, Debye):
    X=              0.0000    Y=              0.0000    Z=             -1.6340  Tot=              1.6340
 Quadrupole moment (field-independent basis, Debye-Ang):
   XX=             -7.0066   YY=             -3.2727   ZZ=             -6.5134
   XY=              0.0000   XZ=              0.0000   YZ=              0.0000

 Normal termination of Gaussian 09 at Mon Sep 29 16:24:39 2014.
