 Gaussian 09, Revision D.01,
 Gaussian 09:  ES64L-G09RevD.01 24-Apr-2013

 -----------------
 #RHF 6-31G(d',p')
 -----------------

 -------------------
 H2O.r0.75theta136.0
 -------------------
 Symbolic Z-matrix:
 Charge =  0 Multiplicity = 1

                         Standard orientation:
 ---------------------------------------------------------------------
 Center     Atomic      Atomic             Coordinates (Angstroms)
 Number     Number       Type             X           Y           Z
 ---------------------------------------------------------------------
      1          8           0        0.000000    0.000000    0.056191
      2          1           0        0.000000    0.695388   -0.224764
      3          1           0        0.000000   -0.695388   -0.224764
 ---------------------------------------------------------------------

 SCF Done:  E(RHF) =  -75.8818478682     A.U. after    9 cycles

 The electronic state is 1-A1.
 Alpha  occ. eigenvalues --  -20.50407  -1.44174  -0.90404  -0.54486  -0.51038
 Alpha virt. eigenvalues --    0.25937   0.33054   1.04422   1.12802   1.13651
 Alpha virt. eigenvalues --    1.25238   1.32783   1.49325   1.49807   2.01140
 Alpha virt. eigenvalues --    2.03709   2.06214   3.06458   3.33535   3.42024

 Mulliken charges:
               1
     1  O   -0.453072
     2  H    0.226536
     3  H    0.226536
 Sum of Mulliken charges =   0.00000

 Dipole moment (field-independent basis, Debye):
    X=              0.0000    Y=              0.0000    Z=             -1.3510  Tot=              1.3510
 Quadrupole moment (field-independent basis, Debye-Ang):
   XX=             -6.6140   YY=             -3.7092   ZZ=             -6.3125
   XY=              0.0000   XZ=              0.0000   YZ=              0.0000

 Normal termination of Gaussian 09 at Mon Sep 29 16:21:27 2014.
