 Gaussian 09, Revision D.01,
 Gaussian 09:  ES64L-G09RevD.01 24-Apr-2013

 -----------------
 #RHF 6-31G(d',p')
 -----------------

 -------------------
 H2O.r1.85theta148.0
 -------------------
 Symbolic Z-matrix:
 Charge =  0 Multiplicity = 1

                         Standard orientation:
 ---------------------------------------------------------------------
 Center     Atomic      Atomic             Coordinates (Angstroms)
 Number     Number       Type             X           Y           Z
 ---------------------------------------------------------------------
      1          8           0        0.000000    0.000000    0.101986
      2          1           0        0.000000    1.778334   -0.407943
      3          1           0        0.000000   -1.778334   -0.407943
 ---------------------------------------------------------------------

 SCF Done:  E(RHF) =  -75.5864359322     A.U. after   14 cycles

 The electronic state is 1-A1.
 Alpha  occ. eigenvalues --  -20.61814  -1.16696  -0.47408  -0.42033  -0.41872
 Alpha virt. eigenvalues --   -0.06974   0.08345   0.95206   0.96990   1.15081
 Alpha virt. eigenvalues --    1.16477   1.18069   1.23809   1.48818   1.48864
 Alpha virt. eigenvalues --    1.54237   1.55362   1.80379   2.01734   3.22172

 Mulliken charges:
               1
     1  O   -0.463113
     2  H    0.231557
     3  H    0.231557
 Sum of Mulliken charges =   0.00000

 Dipole moment (field-independent basis, Debye):
    X=              0.0000    Y=              0.0000    Z=             -1.1332  Tot=              1.1332
 Quadrupole moment (field-independent basis, Debye-Ang):
   XX=             -8.4506   YY=              1.8523   ZZ=             -7.7439
   XY=              0.0000   XZ=              0.0000   YZ=              0.0000

 Normal termination of Gaussian 09 at Mon Sep 29 16:44:05 2014.
