 Gaussian 09, Revision D.01,
 Gaussian 09:  ES64L-G09RevD.01 24-Apr-2013

 -----------------
 #RHF 6-31G(d',p')
 -----------------

 -------------------
 H2O.r1.75theta128.0
 -------------------
 Symbolic Z-matrix:
 Charge =  0 Multiplicity = 1

                         Standard orientation:
 ---------------------------------------------------------------------
 Center     Atomic      Atomic             Coordinates (Angstroms)
 Number     Number       Type             X           Y           Z
 ---------------------------------------------------------------------
      1          8           0        0.000000    0.000000    0.153430
      2          1           0        0.000000    1.572890   -0.613720
      3          1           0        0.000000   -1.572890   -0.613720
 ---------------------------------------------------------------------

 SCF Done:  E(RHF) =  -75.6453081511     A.U. after   13 cycles

 The electronic state is 1-A1.
 Alpha  occ. eigenvalues --  -20.64105  -1.18660  -0.49051  -0.45301  -0.43020
 Alpha virt. eigenvalues --   -0.02117   0.07710   0.94974   0.96306   1.13250
 Alpha virt. eigenvalues --    1.17679   1.20119   1.27551   1.49806   1.49856
 Alpha virt. eigenvalues --    1.55195   1.58230   1.91567   1.93289   3.21169

 Mulliken charges:
               1
     1  O   -0.443027
     2  H    0.221514
     3  H    0.221514
 Sum of Mulliken charges =   0.00000

 Dipole moment (field-independent basis, Debye):
    X=              0.0000    Y=              0.0000    Z=             -1.7083  Tot=              1.7083
 Quadrupole moment (field-independent basis, Debye-Ang):
   XX=             -8.3875   YY=             -0.3183   ZZ=             -6.9251
   XY=              0.0000   XZ=              0.0000   YZ=              0.0000

 Normal termination of Gaussian 09 at Mon Sep 29 16:41:51 2014.
