 Gaussian 09, Revision D.01,
 Gaussian 09:  ES64L-G09RevD.01 24-Apr-2013

 -----------------
 #RHF 6-31G(d',p')
 -----------------

 -------------------
 H2O.r1.50theta152.0
 -------------------
 Symbolic Z-matrix:
 Charge =  0 Multiplicity = 1

                         Standard orientation:
 ---------------------------------------------------------------------
 Center     Atomic      Atomic             Coordinates (Angstroms)
 Number     Number       Type             X           Y           Z
 ---------------------------------------------------------------------
      1          8           0        0.000000    0.000000    0.072577
      2          1           0        0.000000    1.455444   -0.290306
      3          1           0        0.000000   -1.455444   -0.290306
 ---------------------------------------------------------------------

 SCF Done:  E(RHF) =  -75.7260534869     A.U. after   12 cycles

 The electronic state is 1-A1.
 Alpha  occ. eigenvalues --  -20.57701  -1.16888  -0.50343  -0.45303  -0.42447
 Alpha virt. eigenvalues --   -0.00047   0.17419   0.92080   0.92803   1.14787
 Alpha virt. eigenvalues --    1.16406   1.34531   1.43326   1.47867   1.53319
 Alpha virt. eigenvalues --    1.62075   1.64884   1.81334   2.12572   3.25579

 Mulliken charges:
               1
     1  O   -0.650702
     2  H    0.325351
     3  H    0.325351
 Sum of Mulliken charges =   0.00000

 Dipole moment (field-independent basis, Debye):
    X=              0.0000    Y=              0.0000    Z=             -1.1013  Tot=              1.1013
 Quadrupole moment (field-independent basis, Debye-Ang):
   XX=             -8.1583   YY=              0.9684   ZZ=             -7.7070
   XY=              0.0000   XZ=              0.0000   YZ=              0.0000

 Normal termination of Gaussian 09 at Mon Sep 29 16:37:04 2014.
