 Gaussian 09, Revision D.01,
 Gaussian 09:  ES64L-G09RevD.01 24-Apr-2013

 -----------------
 #RHF 6-31G(d',p')
 -----------------

 -------------------
 H2O.r1.80theta155.0
 -------------------
 Symbolic Z-matrix:
 Charge =  0 Multiplicity = 1

                         Standard orientation:
 ---------------------------------------------------------------------
 Center     Atomic      Atomic             Coordinates (Angstroms)
 Number     Number       Type             X           Y           Z
 ---------------------------------------------------------------------
      1          8           0        0.000000    0.000000    0.077918
      2          1           0        0.000000    1.757333   -0.311673
      3          1           0        0.000000   -1.757333   -0.311673
 ---------------------------------------------------------------------

 SCF Done:  E(RHF) =  -75.5962415061     A.U. after   14 cycles

 The electronic state is 1-A1.
 Alpha  occ. eigenvalues --  -20.60131  -1.15856  -0.46297  -0.42558  -0.41585
 Alpha virt. eigenvalues --   -0.07087   0.10288   0.94013   0.96760   1.15398
 Alpha virt. eigenvalues --    1.17201   1.18760   1.27126   1.48517   1.48552
 Alpha virt. eigenvalues --    1.55451   1.56308   1.79352   2.07592   3.23233

 Mulliken charges:
               1
     1  O   -0.510254
     2  H    0.255127
     3  H    0.255127
 Sum of Mulliken charges =   0.00000

 Dipole moment (field-independent basis, Debye):
    X=              0.0000    Y=              0.0000    Z=             -0.9167  Tot=              0.9167
 Quadrupole moment (field-independent basis, Debye-Ang):
   XX=             -8.4213   YY=              2.3168   ZZ=             -7.9402
   XY=              0.0000   XZ=              0.0000   YZ=              0.0000

 Normal termination of Gaussian 09 at Mon Sep 29 16:43:08 2014.
