 Gaussian 09, Revision D.01,
 Gaussian 09:  ES64L-G09RevD.01 24-Apr-2013

 -----------------
 #RHF 6-31G(d',p')
 -----------------

 -------------------
 H2O.r1.00theta156.0
 -------------------
 Symbolic Z-matrix:
 Charge =  0 Multiplicity = 1

                         Standard orientation:
 ---------------------------------------------------------------------
 Center     Atomic      Atomic             Coordinates (Angstroms)
 Number     Number       Type             X           Y           Z
 ---------------------------------------------------------------------
      1          8           0        0.000000    0.000000    0.041582
      2          1           0        0.000000    0.978148   -0.166329
      3          1           0        0.000000   -0.978148   -0.166329
 ---------------------------------------------------------------------

 SCF Done:  E(RHF) =  -75.9706206139     A.U. after   10 cycles

 The electronic state is 1-A1.
 Alpha  occ. eigenvalues --  -20.52139  -1.27916  -0.72903  -0.47154  -0.46507
 Alpha virt. eigenvalues --    0.18126   0.29857   0.86049   1.10009   1.18678
 Alpha virt. eigenvalues --    1.19060   1.34938   1.43146   1.47288   1.80650
 Alpha virt. eigenvalues --    1.85693   1.86313   2.30408   2.69720   3.26845

 Mulliken charges:
               1
     1  O   -0.725187
     2  H    0.362594
     3  H    0.362594
 Sum of Mulliken charges =   0.00000

 Dipole moment (field-independent basis, Debye):
    X=              0.0000    Y=              0.0000    Z=             -0.9558  Tot=              0.9558
 Quadrupole moment (field-independent basis, Debye-Ang):
   XX=             -7.2760   YY=             -1.7562   ZZ=             -7.1317
   XY=              0.0000   XZ=              0.0000   YZ=              0.0000

 Normal termination of Gaussian 09 at Mon Sep 29 16:26:56 2014.
