 Gaussian 09, Revision D.01,
 Gaussian 09:  ES64L-G09RevD.01 24-Apr-2013

 -----------------
 #RHF 6-31G(d',p')
 -----------------

 -------------------
 H2O.r1.40theta122.0
 -------------------
 Symbolic Z-matrix:
 Charge =  0 Multiplicity = 1

                         Standard orientation:
 ---------------------------------------------------------------------
 Center     Atomic      Atomic             Coordinates (Angstroms)
 Number     Number       Type             X           Y           Z
 ---------------------------------------------------------------------
      1          8           0        0.000000    0.000000    0.135747
      2          1           0        0.000000    1.224468   -0.542987
      3          1           0        0.000000   -1.224468   -0.542987
 ---------------------------------------------------------------------

 SCF Done:  E(RHF) =  -75.8176012712     A.U. after   11 cycles

 The electronic state is 1-A1.
 Alpha  occ. eigenvalues --  -20.61003  -1.20738  -0.53898  -0.48163  -0.47075
 Alpha virt. eigenvalues --    0.07194   0.17260   0.90486   0.96192   1.13254
 Alpha virt. eigenvalues --    1.16186   1.32356   1.39887   1.48428   1.63004
 Alpha virt. eigenvalues --    1.63550   1.67658   1.90134   2.00674   3.24482

 Mulliken charges:
               1
     1  O   -0.565786
     2  H    0.282893
     3  H    0.282893
 Sum of Mulliken charges =   0.00000

 Dipole moment (field-independent basis, Debye):
    X=              0.0000    Y=              0.0000    Z=             -1.9498  Tot=              1.9498
 Quadrupole moment (field-independent basis, Debye-Ang):
   XX=             -8.0164   YY=             -1.8454   ZZ=             -6.6939
   XY=              0.0000   XZ=              0.0000   YZ=              0.0000

 Normal termination of Gaussian 09 at Mon Sep 29 16:34:41 2014.
