 Gaussian 09, Revision D.01,
 Gaussian 09:  ES64L-G09RevD.01 24-Apr-2013

 -----------------
 #RHF 6-31G(d',p')
 -----------------

 -------------------
 H2O.r1.85theta109.0
 -------------------
 Symbolic Z-matrix:
 Charge =  0 Multiplicity = 1

                         Standard orientation:
 ---------------------------------------------------------------------
 Center     Atomic      Atomic             Coordinates (Angstroms)
 Number     Number       Type             X           Y           Z
 ---------------------------------------------------------------------
      1          8           0        0.000000    0.000000    0.214860
      2          1           0        0.000000    1.506114   -0.859440
      3          1           0        0.000000   -1.506114   -0.859440
 ---------------------------------------------------------------------

 SCF Done:  E(RHF) =  -75.6166638964     A.U. after   13 cycles

 The electronic state is 1-A1.
 Alpha  occ. eigenvalues --  -20.66325  -1.19552  -0.50441  -0.43852  -0.42959
 Alpha virt. eigenvalues --   -0.01644   0.03148   0.94422   0.99490   1.13069
 Alpha virt. eigenvalues --    1.16162   1.18892   1.21038   1.50061   1.50257
 Alpha virt. eigenvalues --    1.52899   1.56063   1.82232   1.97139   3.19164

 Mulliken charges:
               1
     1  O   -0.378570
     2  H    0.189285
     3  H    0.189285
 Sum of Mulliken charges =   0.00000

 Dipole moment (field-independent basis, Debye):
    X=              0.0000    Y=              0.0000    Z=             -2.1531  Tot=              2.1531
 Quadrupole moment (field-independent basis, Debye-Ang):
   XX=             -8.4562   YY=             -1.7727   ZZ=             -5.9105
   XY=              0.0000   XZ=              0.0000   YZ=              0.0000

 Normal termination of Gaussian 09 at Mon Sep 29 16:43:38 2014.
