 Gaussian 09, Revision D.01,
 Gaussian 09:  ES64L-G09RevD.01 24-Apr-2013

 -----------------
 #RHF 6-31G(d',p')
 -----------------

 -------------------
 H2O.r0.95theta144.0
 -------------------
 Symbolic Z-matrix:
 Charge =  0 Multiplicity = 1

                         Standard orientation:
 ---------------------------------------------------------------------
 Center     Atomic      Atomic             Coordinates (Angstroms)
 Number     Number       Type             X           Y           Z
 ---------------------------------------------------------------------
      1          8           0        0.000000    0.000000    0.058713
      2          1           0        0.000000    0.903504   -0.234853
      3          1           0        0.000000   -0.903504   -0.234853
 ---------------------------------------------------------------------

 SCF Done:  E(RHF) =  -75.9944282245     A.U. after   10 cycles

 The electronic state is 1-A1.
 Alpha  occ. eigenvalues --  -20.52721  -1.31232  -0.75799  -0.49606  -0.47851
 Alpha virt. eigenvalues --    0.20745   0.30588   0.89490   1.13831   1.17406
 Alpha virt. eigenvalues --    1.18273   1.28689   1.44091   1.46790   1.84878
 Alpha virt. eigenvalues --    1.87402   1.88593   2.45827   2.74114   3.30650

 Mulliken charges:
               1
     1  O   -0.651847
     2  H    0.325924
     3  H    0.325924
 Sum of Mulliken charges =   0.00000

 Dipole moment (field-independent basis, Debye):
    X=              0.0000    Y=              0.0000    Z=             -1.3100  Tot=              1.3100
 Quadrupole moment (field-independent basis, Debye-Ang):
   XX=             -7.1452   YY=             -2.5117   ZZ=             -6.8564
   XY=              0.0000   XZ=              0.0000   YZ=              0.0000

 Normal termination of Gaussian 09 at Mon Sep 29 16:25:48 2014.
