 Gaussian 09, Revision D.01,
 Gaussian 09:  ES64L-G09RevD.01 24-Apr-2013

 -----------------
 #RHF 6-31G(d',p')
 -----------------

 -------------------
 H2O.r1.15theta160.0
 -------------------
 Symbolic Z-matrix:
 Charge =  0 Multiplicity = 1

                         Standard orientation:
 ---------------------------------------------------------------------
 Center     Atomic      Atomic             Coordinates (Angstroms)
 Number     Number       Type             X           Y           Z
 ---------------------------------------------------------------------
      1          8           0        0.000000    0.000000    0.039939
      2          1           0        0.000000    1.132529   -0.159756
      3          1           0        0.000000   -1.132529   -0.159756
 ---------------------------------------------------------------------

 SCF Done:  E(RHF) =  -75.9006428219     A.U. after   10 cycles

 The electronic state is 1-A1.
 Alpha  occ. eigenvalues --  -20.52463  -1.21618  -0.63833  -0.44468  -0.44433
 Alpha virt. eigenvalues --    0.11152   0.27420   0.86018   1.00486   1.18793
 Alpha virt. eigenvalues --    1.18843   1.38946   1.43761   1.46503   1.74690
 Alpha virt. eigenvalues --    1.77353   1.77524   2.03624   2.42004   3.27072

 Mulliken charges:
               1
     1  O   -0.801574
     2  H    0.400787
     3  H    0.400787
 Sum of Mulliken charges =   0.00000

 Dipole moment (field-independent basis, Debye):
    X=              0.0000    Y=              0.0000    Z=             -0.8694  Tot=              0.8694
 Quadrupole moment (field-independent basis, Debye-Ang):
   XX=             -7.6049   YY=             -0.4124   ZZ=             -7.4690
   XY=              0.0000   XZ=              0.0000   YZ=              0.0000

 Normal termination of Gaussian 09 at Mon Sep 29 16:29:58 2014.
