 Gaussian 09, Revision D.01,
 Gaussian 09:  ES64L-G09RevD.01 24-Apr-2013

 -----------------
 #RHF 6-31G(d',p')
 -----------------

 -------------------
 H2O.r1.30theta110.0
 -------------------
 Symbolic Z-matrix:
 Charge =  0 Multiplicity = 1

                         Standard orientation:
 ---------------------------------------------------------------------
 Center     Atomic      Atomic             Coordinates (Angstroms)
 Number     Number       Type             X           Y           Z
 ---------------------------------------------------------------------
      1          8           0        0.000000    0.000000    0.149130
      2          1           0        0.000000    1.064898   -0.596519
      3          1           0        0.000000   -1.064898   -0.596519
 ---------------------------------------------------------------------

 SCF Done:  E(RHF) =  -75.8811382653     A.U. after   11 cycles

 The electronic state is 1-A1.
 Alpha  occ. eigenvalues --  -20.60807  -1.22868  -0.56511  -0.50165  -0.48740
 Alpha virt. eigenvalues --    0.11511   0.19522   0.90722   0.96479   1.13586
 Alpha virt. eigenvalues --    1.16298   1.27373   1.42555   1.48353   1.69063
 Alpha virt. eigenvalues --    1.69300   1.71144   1.91512   2.08537   3.27246

 Mulliken charges:
               1
     1  O   -0.561878
     2  H    0.280939
     3  H    0.280939
 Sum of Mulliken charges =   0.00000

 Dipole moment (field-independent basis, Debye):
    X=              0.0000    Y=              0.0000    Z=             -2.2169  Tot=              2.2169
 Quadrupole moment (field-independent basis, Debye-Ang):
   XX=             -7.8559   YY=             -3.0217   ZZ=             -6.2313
   XY=              0.0000   XZ=              0.0000   YZ=              0.0000

 Normal termination of Gaussian 09 at Mon Sep 29 16:32:24 2014.
