 Gaussian 09, Revision D.01,
 Gaussian 09:  ES64L-G09RevD.01 24-Apr-2013

 -----------------
 #RHF 6-31G(d',p')
 -----------------

 -------------------
 H2O.r1.25theta105.0
 -------------------
 Symbolic Z-matrix:
 Charge =  0 Multiplicity = 1

                         Standard orientation:
 ---------------------------------------------------------------------
 Center     Atomic      Atomic             Coordinates (Angstroms)
 Number     Number       Type             X           Y           Z
 ---------------------------------------------------------------------
      1          8           0        0.000000    0.000000    0.152190
      2          1           0        0.000000    0.991692   -0.608761
      3          1           0        0.000000   -0.991692   -0.608761
 ---------------------------------------------------------------------

 SCF Done:  E(RHF) =  -75.9103345634     A.U. after   10 cycles

 The electronic state is 1-A1.
 Alpha  occ. eigenvalues --  -20.60501  -1.24085  -0.57808  -0.51743  -0.48966
 Alpha virt. eigenvalues --    0.13388   0.20880   0.91586   0.96048   1.13926
 Alpha virt. eigenvalues --    1.16445   1.26452   1.42673   1.48681   1.69011
 Alpha virt. eigenvalues --    1.71568   1.74769   1.96353   2.10659   3.29655

 Mulliken charges:
               1
     1  O   -0.558845
     2  H    0.279423
     3  H    0.279423
 Sum of Mulliken charges =   0.00000

 Dipole moment (field-independent basis, Debye):
    X=              0.0000    Y=              0.0000    Z=             -2.3081  Tot=              2.3081
 Quadrupole moment (field-independent basis, Debye-Ang):
   XX=             -7.7660   YY=             -3.4918   ZZ=             -6.0491
   XY=              0.0000   XZ=              0.0000   YZ=              0.0000

 Normal termination of Gaussian 09 at Mon Sep 29 16:31:21 2014.
