 Gaussian 09, Revision D.01,
 Gaussian 09:  ES64L-G09RevD.01 24-Apr-2013

 -----------------
 #RHF 6-31G(d',p')
 -----------------

 -------------------
 H2S.r0.65theta129.0
 -------------------
 Symbolic Z-matrix:
 Charge =  0 Multiplicity = 1

                         Standard orientation:
 ---------------------------------------------------------------------
 Center     Atomic      Atomic             Coordinates (Angstroms)
 Number     Number       Type             X           Y           Z
 ---------------------------------------------------------------------
      1         16           0        0.000000    0.000000    0.031092
      2          1           0        0.000000    0.586680   -0.248740
      3          1           0        0.000000   -0.586680   -0.248740
 ---------------------------------------------------------------------

 SCF Done:  E(RHF) =  -396.520557904     A.U. after   10 cycles

 The electronic state is 1-A1.
 Alpha  occ. eigenvalues --  -91.88812  -9.04917  -6.77199  -6.70093  -6.68203
 Alpha  occ. eigenvalues --   -1.22358  -0.87045  -0.46309  -0.41244
 Alpha virt. eigenvalues --    0.19863   0.24176   0.50198   0.50594   0.52694
 Alpha virt. eigenvalues --    0.53981   0.85896   0.87629   0.93249   0.98885
 Alpha virt. eigenvalues --    0.98967   1.94894   2.03536   2.12962   2.23757

 Mulliken charges:
               1
     1  S    0.671567
     2  H   -0.335784
     3  H   -0.335784
 Sum of Mulliken charges =   0.00000

 Dipole moment (field-independent basis, Debye):
    X=              0.0000    Y=              0.0000    Z=             -1.4724  Tot=              1.4724
 Quadrupole moment (field-independent basis, Debye-Ang):
   XX=            -14.6096   YY=            -11.6086   ZZ=            -13.7390
   XY=              0.0000   XZ=              0.0000   YZ=              0.0000

 Normal termination of Gaussian 09 at Tue Sep 30 07:21:45 2014.
