 Gaussian 09, Revision D.01,
 Gaussian 09:  ES64L-G09RevD.01 24-Apr-2013

 -----------------
 #RHF 6-31G(d',p')
 -----------------

 ------------------
 H2S.r1.00theta80.0
 ------------------
 Symbolic Z-matrix:
 Charge =  0 Multiplicity = 1

                         Standard orientation:
 ---------------------------------------------------------------------
 Center     Atomic      Atomic             Coordinates (Angstroms)
 Number     Number       Type             X           Y           Z
 ---------------------------------------------------------------------
      1         16           0        0.000000    0.000000    0.085116
      2          1           0        0.000000    0.642788   -0.680928
      3          1           0        0.000000   -0.642788   -0.680928
 ---------------------------------------------------------------------

 SCF Done:  E(RHF) =  -398.440701432     A.U. after   10 cycles

 The electronic state is 1-A1.
 Alpha  occ. eigenvalues --  -91.89589  -8.94122  -6.62509  -6.62370  -6.61541
 Alpha  occ. eigenvalues --   -1.11934  -0.65491  -0.54138  -0.38941
 Alpha virt. eigenvalues --    0.21642   0.31410   0.37048   0.47311   0.52058
 Alpha virt. eigenvalues --    0.53010   0.83392   0.86301   0.91996   0.94161
 Alpha virt. eigenvalues --    1.08175   1.58310   1.68447   1.88744   1.93973

 Mulliken charges:
               1
     1  S    0.036386
     2  H   -0.018193
     3  H   -0.018193
 Sum of Mulliken charges =   0.00000

 Dipole moment (field-independent basis, Debye):
    X=              0.0000    Y=              0.0000    Z=             -1.2443  Tot=              1.2443
 Quadrupole moment (field-independent basis, Debye-Ang):
   XX=            -15.7842   YY=            -12.3889   ZZ=            -12.9773
   XY=              0.0000   XZ=              0.0000   YZ=              0.0000

 Normal termination of Gaussian 09 at Tue Sep 30 07:28:22 2014.
