 Gaussian 09, Revision D.01,
 Gaussian 09:  ES64L-G09RevD.01 24-Apr-2013

 -----------------
 #RHF 6-31G(d',p')
 -----------------

 -------------------
 H2S.r1.35theta158.0
 -------------------
 Symbolic Z-matrix:
 Charge =  0 Multiplicity = 1

                         Standard orientation:
 ---------------------------------------------------------------------
 Center     Atomic      Atomic             Coordinates (Angstroms)
 Number     Number       Type             X           Y           Z
 ---------------------------------------------------------------------
      1         16           0        0.000000    0.000000    0.028621
      2          1           0        0.000000    1.325197   -0.228971
      3          1           0        0.000000   -1.325197   -0.228971
 ---------------------------------------------------------------------

 SCF Done:  E(RHF) =  -398.576731347     A.U. after   10 cycles

 The electronic state is 1-A1.
 Alpha  occ. eigenvalues --  -91.94104  -8.95446  -6.63936  -6.63713  -6.63634
 Alpha  occ. eigenvalues --   -0.96952  -0.65858  -0.38731  -0.37519
 Alpha virt. eigenvalues --    0.05139   0.31189   0.42779   0.49311   0.54072
 Alpha virt. eigenvalues --    0.54371   0.82165   0.87311   0.96465   1.04362
 Alpha virt. eigenvalues --    1.04434   1.14460   1.39694   1.57616   1.63292

 Mulliken charges:
               1
     1  S   -0.334686
     2  H    0.167343
     3  H    0.167343
 Sum of Mulliken charges =   0.00000

 Dipole moment (field-independent basis, Debye):
    X=              0.0000    Y=              0.0000    Z=             -1.3460  Tot=              1.3460
 Quadrupole moment (field-independent basis, Debye-Ang):
   XX=            -16.9435   YY=             -8.9520   ZZ=            -16.3348
   XY=              0.0000   XZ=              0.0000   YZ=              0.0000

 Normal termination of Gaussian 09 at Tue Sep 30 07:36:30 2014.
