 Gaussian 09, Revision D.01,
 Gaussian 09:  ES64L-G09RevD.01 24-Apr-2013

 -----------------
 #RHF 6-31G(d',p')
 -----------------

 -------------------
 H2S.r0.90theta115.0
 -------------------
 Symbolic Z-matrix:
 Charge =  0 Multiplicity = 1

                         Standard orientation:
 ---------------------------------------------------------------------
 Center     Atomic      Atomic             Coordinates (Angstroms)
 Number     Number       Type             X           Y           Z
 ---------------------------------------------------------------------
      1         16           0        0.000000    0.000000    0.053730
      2          1           0        0.000000    0.759052   -0.429840
      3          1           0        0.000000   -0.759052   -0.429840
 ---------------------------------------------------------------------

 SCF Done:  E(RHF) =  -398.198642728     A.U. after    9 cycles

 The electronic state is 1-A1.
 Alpha  occ. eigenvalues --  -91.87847  -8.94559  -6.63523  -6.62325  -6.61548
 Alpha  occ. eigenvalues --   -1.14089  -0.79091  -0.47693  -0.39395
 Alpha virt. eigenvalues --    0.24872   0.26545   0.38946   0.45714   0.52136
 Alpha virt. eigenvalues --    0.52497   0.87939   0.88589   0.92150   0.97919
 Alpha virt. eigenvalues --    1.01250   1.69565   1.73552   1.92248   2.02134

 Mulliken charges:
               1
     1  S    0.141418
     2  H   -0.070709
     3  H   -0.070709
 Sum of Mulliken charges =   0.00000

 Dipole moment (field-independent basis, Debye):
    X=              0.0000    Y=              0.0000    Z=             -1.5946  Tot=              1.5946
 Quadrupole moment (field-independent basis, Debye-Ang):
   XX=            -15.4385   YY=            -11.4798   ZZ=            -13.9228
   XY=              0.0000   XZ=              0.0000   YZ=              0.0000

 Normal termination of Gaussian 09 at Tue Sep 30 07:26:43 2014.
