 Gaussian 09, Revision D.01,
 Gaussian 09:  ES64L-G09RevD.01 24-Apr-2013

 -----------------
 #RHF 6-31G(d',p')
 -----------------

 -------------------
 H2S.r1.15theta116.0
 -------------------
 Symbolic Z-matrix:
 Charge =  0 Multiplicity = 1

                         Standard orientation:
 ---------------------------------------------------------------------
 Center     Atomic      Atomic             Coordinates (Angstroms)
 Number     Number       Type             X           Y           Z
 ---------------------------------------------------------------------
      1         16           0        0.000000    0.000000    0.067712
      2          1           0        0.000000    0.975255   -0.541695
      3          1           0        0.000000   -0.975255   -0.541695
 ---------------------------------------------------------------------

 SCF Done:  E(RHF) =  -398.614002203     A.U. after   10 cycles

 The electronic state is 1-A1.
 Alpha  occ. eigenvalues --  -91.92268  -8.94895  -6.63377  -6.63022  -6.62758
 Alpha  occ. eigenvalues --   -1.03813  -0.69930  -0.46670  -0.38519
 Alpha virt. eigenvalues --    0.22890   0.23877   0.40135   0.45126   0.52704
 Alpha virt. eigenvalues --    0.53389   0.88190   0.89606   0.93133   0.98130
 Alpha virt. eigenvalues --    0.98664   1.45283   1.52547   1.72769   1.81811

 Mulliken charges:
               1
     1  S   -0.071248
     2  H    0.035624
     3  H    0.035624
 Sum of Mulliken charges =   0.00000

 Dipole moment (field-independent basis, Debye):
    X=              0.0000    Y=              0.0000    Z=             -1.5848  Tot=              1.5848
 Quadrupole moment (field-independent basis, Debye-Ang):
   XX=            -16.1759   YY=            -11.3417   ZZ=            -14.3933
   XY=              0.0000   XZ=              0.0000   YZ=              0.0000

 Normal termination of Gaussian 09 at Tue Sep 30 07:31:52 2014.
