 Gaussian 09, Revision D.01,
 Gaussian 09:  ES64L-G09RevD.01 24-Apr-2013

 -----------------
 #RHF 6-31G(d',p')
 -----------------

 -------------------
 H2S.r1.50theta138.0
 -------------------
 Symbolic Z-matrix:
 Charge =  0 Multiplicity = 1

                         Standard orientation:
 ---------------------------------------------------------------------
 Center     Atomic      Atomic             Coordinates (Angstroms)
 Number     Number       Type             X           Y           Z
 ---------------------------------------------------------------------
      1         16           0        0.000000    0.000000    0.059728
      2          1           0        0.000000    1.400371   -0.477824
      3          1           0        0.000000   -1.400371   -0.477824
 ---------------------------------------------------------------------

 SCF Done:  E(RHF) =  -398.600873821     A.U. after   10 cycles

 The electronic state is 1-A1.
 Alpha  occ. eigenvalues --  -91.96763  -8.97357  -6.65648  -6.65528  -6.65349
 Alpha  occ. eigenvalues --   -0.94010  -0.59843  -0.41469  -0.37887
 Alpha virt. eigenvalues --    0.05819   0.21106   0.45598   0.50104   0.53557
 Alpha virt. eigenvalues --    0.53770   0.86501   0.92126   0.97091   1.01897
 Alpha virt. eigenvalues --    1.02641   1.14940   1.23119   1.59518   1.62033

 Mulliken charges:
               1
     1  S   -0.189389
     2  H    0.094695
     3  H    0.094695
 Sum of Mulliken charges =   0.00000

 Dipole moment (field-independent basis, Debye):
    X=              0.0000    Y=              0.0000    Z=             -1.4225  Tot=              1.4225
 Quadrupole moment (field-independent basis, Debye-Ang):
   XX=            -17.1902   YY=            -10.0168   ZZ=            -15.6301
   XY=              0.0000   XZ=              0.0000   YZ=              0.0000

 Normal termination of Gaussian 09 at Tue Sep 30 07:39:24 2014.
