 Gaussian 09, Revision D.01,
 Gaussian 09:  ES64L-G09RevD.01 24-Apr-2013

 -----------------
 #RHF 6-31G(d',p')
 -----------------

 -------------------
 H2S.r0.90theta108.0
 -------------------
 Symbolic Z-matrix:
 Charge =  0 Multiplicity = 1

                         Standard orientation:
 ---------------------------------------------------------------------
 Center     Atomic      Atomic             Coordinates (Angstroms)
 Number     Number       Type             X           Y           Z
 ---------------------------------------------------------------------
      1         16           0        0.000000    0.000000    0.058779
      2          1           0        0.000000    0.728115   -0.470228
      3          1           0        0.000000   -0.728115   -0.470228
 ---------------------------------------------------------------------

 SCF Done:  E(RHF) =  -398.204491228     A.U. after    9 cycles

 The electronic state is 1-A1.
 Alpha  occ. eigenvalues --  -91.87778  -8.94447  -6.63271  -6.62346  -6.61419
 Alpha  occ. eigenvalues --   -1.14355  -0.77442  -0.49010  -0.39336
 Alpha virt. eigenvalues --    0.24189   0.27844   0.39375   0.45898   0.52135
 Alpha virt. eigenvalues --    0.52555   0.87043   0.89114   0.90533   0.96928
 Alpha virt. eigenvalues --    1.03503   1.69232   1.78435   1.91657   1.99633

 Mulliken charges:
               1
     1  S    0.142622
     2  H   -0.071311
     3  H   -0.071311
 Sum of Mulliken charges =   0.00000

 Dipole moment (field-independent basis, Debye):
    X=              0.0000    Y=              0.0000    Z=             -1.5280  Tot=              1.5280
 Quadrupole moment (field-independent basis, Debye-Ang):
   XX=            -15.4533   YY=            -11.5952   ZZ=            -13.7262
   XY=              0.0000   XZ=              0.0000   YZ=              0.0000

 Normal termination of Gaussian 09 at Tue Sep 30 07:26:38 2014.
