 Gaussian 09, Revision D.01,
 Gaussian 09:  ES64L-G09RevD.01 24-Apr-2013

 -----------------
 #RHF 6-31G(d',p')
 -----------------

 ------------------
 H2S.r1.50theta70.0
 ------------------
 Symbolic Z-matrix:
 Charge =  0 Multiplicity = 1

                         Standard orientation:
 ---------------------------------------------------------------------
 Center     Atomic      Atomic             Coordinates (Angstroms)
 Number     Number       Type             X           Y           Z
 ---------------------------------------------------------------------
      1         16           0        0.000000    0.000000    0.136525
      2          1           0        0.000000    0.860365   -1.092203
      3          1           0        0.000000   -0.860365   -1.092203
 ---------------------------------------------------------------------

 SCF Done:  E(RHF) =  -398.637642125     A.U. after   10 cycles

 The electronic state is 1-A1.
 Alpha  occ. eigenvalues --  -91.97940  -8.98412  -6.66597  -6.66569  -6.66298
 Alpha  occ. eigenvalues --   -0.95241  -0.52287  -0.50120  -0.38575
 Alpha virt. eigenvalues --    0.11441   0.15850   0.49060   0.50900   0.51229
 Alpha virt. eigenvalues --    0.53330   0.89478   0.91090   0.94663   0.95814
 Alpha virt. eigenvalues --    0.98797   1.21305   1.22760   1.55661   1.62059

 Mulliken charges:
               1
     1  S   -0.069679
     2  H    0.034840
     3  H    0.034840
 Sum of Mulliken charges =   0.00000

 Dipole moment (field-independent basis, Debye):
    X=              0.0000    Y=              0.0000    Z=             -1.2357  Tot=              1.2357
 Quadrupole moment (field-independent basis, Debye-Ang):
   XX=            -17.0753   YY=            -13.7340   ZZ=            -12.6822
   XY=              0.0000   XZ=              0.0000   YZ=              0.0000

 Normal termination of Gaussian 09 at Tue Sep 30 07:38:37 2014.
