 Gaussian 09, Revision D.01,
 Gaussian 09:  ES64L-G09RevD.01 24-Apr-2013

 -----------------
 #RHF 6-31G(d',p')
 -----------------

 ------------------
 H2S.r1.25theta82.0
 ------------------
 Symbolic Z-matrix:
 Charge =  0 Multiplicity = 1

                         Standard orientation:
 ---------------------------------------------------------------------
 Center     Atomic      Atomic             Coordinates (Angstroms)
 Number     Number       Type             X           Y           Z
 ---------------------------------------------------------------------
      1         16           0        0.000000    0.000000    0.104821
      2          1           0        0.000000    0.820074   -0.838566
      3          1           0        0.000000   -0.820074   -0.838566
 ---------------------------------------------------------------------

 SCF Done:  E(RHF) =  -398.662394530     A.U. after   10 cycles

 The electronic state is 1-A1.
 Alpha  occ. eigenvalues --  -91.94287  -8.95938  -6.64209  -6.64152  -6.63825
 Alpha  occ. eigenvalues --   -1.01394  -0.59076  -0.52406  -0.38499
 Alpha virt. eigenvalues --    0.17798   0.24647   0.45031   0.48210   0.51186
 Alpha virt. eigenvalues --    0.53492   0.84099   0.87971   0.93067   0.94527
 Alpha virt. eigenvalues --    1.02848   1.36287   1.46611   1.72728   1.80062

 Mulliken charges:
               1
     1  S   -0.030321
     2  H    0.015160
     3  H    0.015160
 Sum of Mulliken charges =   0.00000

 Dipole moment (field-independent basis, Debye):
    X=              0.0000    Y=              0.0000    Z=             -1.2661  Tot=              1.2661
 Quadrupole moment (field-independent basis, Debye-Ang):
   XX=            -16.4440   YY=            -12.7086   ZZ=            -13.2553
   XY=              0.0000   XZ=              0.0000   YZ=              0.0000

 Normal termination of Gaussian 09 at Tue Sep 30 07:33:33 2014.
