 Gaussian 09, Revision D.01,
 Gaussian 09:  ES64L-G09RevD.01 24-Apr-2013

 -----------------
 #RHF 6-31G(d',p')
 -----------------

 -------------------
 H2S.r0.75theta123.0
 -------------------
 Symbolic Z-matrix:
 Charge =  0 Multiplicity = 1

                         Standard orientation:
 ---------------------------------------------------------------------
 Center     Atomic      Atomic             Coordinates (Angstroms)
 Number     Number       Type             X           Y           Z
 ---------------------------------------------------------------------
      1         16           0        0.000000    0.000000    0.039763
      2          1           0        0.000000    0.659113   -0.318106
      3          1           0        0.000000   -0.659113   -0.318106
 ---------------------------------------------------------------------

 SCF Done:  E(RHF) =  -397.454186556     A.U. after   10 cycles

 The electronic state is 1-A1.
 Alpha  occ. eigenvalues --  -91.86619  -8.98073  -6.68271  -6.64842  -6.63497
 Alpha  occ. eigenvalues --   -1.19870  -0.85030  -0.46775  -0.40332
 Alpha virt. eigenvalues --    0.22324   0.24720   0.45541   0.49195   0.51381
 Alpha virt. eigenvalues --    0.51541   0.87578   0.88274   0.93653   0.98805
 Alpha virt. eigenvalues --    0.99887   1.84998   1.88366   2.09024   2.09710

 Mulliken charges:
               1
     1  S    0.430468
     2  H   -0.215234
     3  H   -0.215234
 Sum of Mulliken charges =   0.00000

 Dipole moment (field-independent basis, Debye):
    X=              0.0000    Y=              0.0000    Z=             -1.5724  Tot=              1.5724
 Quadrupole moment (field-independent basis, Debye-Ang):
   XX=            -14.9594   YY=            -11.5100   ZZ=            -13.8293
   XY=              0.0000   XZ=              0.0000   YZ=              0.0000

 Normal termination of Gaussian 09 at Tue Sep 30 07:23:44 2014.
