 Gaussian 09, Revision D.01,
 Gaussian 09:  ES64L-G09RevD.01 24-Apr-2013

 -----------------
 #RHF 6-31G(d',p')
 -----------------

 ------------------
 H2S.r0.80theta92.0
 ------------------
 Symbolic Z-matrix:
 Charge =  0 Multiplicity = 1

                         Standard orientation:
 ---------------------------------------------------------------------
 Center     Atomic      Atomic             Coordinates (Angstroms)
 Number     Number       Type             X           Y           Z
 ---------------------------------------------------------------------
      1         16           0        0.000000    0.000000    0.061747
      2          1           0        0.000000    0.575472   -0.493979
      3          1           0        0.000000   -0.575472   -0.493979
 ---------------------------------------------------------------------

 SCF Done:  E(RHF) =  -397.778392459     A.U. after   10 cycles

 The electronic state is 1-A1.
 Alpha  occ. eigenvalues --  -91.86443  -8.95863  -6.64461  -6.64092  -6.61900
 Alpha  occ. eigenvalues --   -1.20100  -0.75238  -0.52414  -0.39755
 Alpha virt. eigenvalues --    0.23148   0.25651   0.45558   0.47903   0.52117
 Alpha virt. eigenvalues --    0.52927   0.84037   0.88304   0.92408   0.94708
 Alpha virt. eigenvalues --    1.07558   1.80219   1.86842   2.02973   2.18391

 Mulliken charges:
               1
     1  S    0.271497
     2  H   -0.135748
     3  H   -0.135748
 Sum of Mulliken charges =   0.00000

 Dipole moment (field-independent basis, Debye):
    X=              0.0000    Y=              0.0000    Z=             -1.3084  Tot=              1.3084
 Quadrupole moment (field-independent basis, Debye-Ang):
   XX=            -15.2125   YY=            -11.8691   ZZ=            -13.1378
   XY=              0.0000   XZ=              0.0000   YZ=              0.0000

 Normal termination of Gaussian 09 at Tue Sep 30 07:24:24 2014.
