 Gaussian 09, Revision D.01,
 Gaussian 09:  ES64L-G09RevD.01 24-Apr-2013

 -----------------
 #RHF 6-31G(d',p')
 -----------------

 -------------------
 H2S.r1.35theta104.0
 -------------------
 Symbolic Z-matrix:
 Charge =  0 Multiplicity = 1

                         Standard orientation:
 ---------------------------------------------------------------------
 Center     Atomic      Atomic             Coordinates (Angstroms)
 Number     Number       Type             X           Y           Z
 ---------------------------------------------------------------------
      1         16           0        0.000000    0.000000    0.092349
      2          1           0        0.000000    1.063815   -0.738794
      3          1           0        0.000000   -1.063815   -0.738794
 ---------------------------------------------------------------------

 SCF Done:  E(RHF) =  -398.672598503     A.U. after    9 cycles

 The electronic state is 1-A1.
 Alpha  occ. eigenvalues --  -91.95693  -8.96746  -6.65050  -6.64913  -6.64705
 Alpha  occ. eigenvalues --   -0.97783  -0.60947  -0.47883  -0.38313
 Alpha virt. eigenvalues --    0.18295   0.18969   0.46946   0.47515   0.51855
 Alpha virt. eigenvalues --    0.53577   0.89529   0.91271   0.92208   0.97334
 Alpha virt. eigenvalues --    0.97446   1.27829   1.44258   1.57044   1.70590

 Mulliken charges:
               1
     1  S   -0.079198
     2  H    0.039599
     3  H    0.039599
 Sum of Mulliken charges =   0.00000

 Dipole moment (field-independent basis, Debye):
    X=              0.0000    Y=              0.0000    Z=             -1.3985  Tot=              1.3985
 Quadrupole moment (field-independent basis, Debye-Ang):
   XX=            -16.7117   YY=            -11.8026   ZZ=            -14.1879
   XY=              0.0000   XZ=              0.0000   YZ=              0.0000

 Normal termination of Gaussian 09 at Tue Sep 30 07:35:53 2014.
