 Gaussian 09, Revision D.01,
 Gaussian 09:  ES64L-G09RevD.01 24-Apr-2013

 -----------------
 #RHF 6-31G(d',p')
 -----------------

 -------------------
 H2S.r1.20theta132.0
 -------------------
 Symbolic Z-matrix:
 Charge =  0 Multiplicity = 1

                         Standard orientation:
 ---------------------------------------------------------------------
 Center     Atomic      Atomic             Coordinates (Angstroms)
 Number     Number       Type             X           Y           Z
 ---------------------------------------------------------------------
      1         16           0        0.000000    0.000000    0.054232
      2          1           0        0.000000    1.096255   -0.433852
      3          1           0        0.000000   -1.096255   -0.433852
 ---------------------------------------------------------------------

 SCF Done:  E(RHF) =  -398.613139774     A.U. after   10 cycles

 The electronic state is 1-A1.
 Alpha  occ. eigenvalues --  -91.93000  -8.95216  -6.63719  -6.63357  -6.63189
 Alpha  occ. eigenvalues --   -1.01903  -0.70127  -0.43594  -0.38379
 Alpha virt. eigenvalues --    0.16602   0.26686   0.40486   0.44631   0.53340
 Alpha virt. eigenvalues --    0.53480   0.86719   0.87058   0.97381   0.99743
 Alpha virt. eigenvalues --    1.00604   1.36296   1.43518   1.71227   1.78615

 Mulliken charges:
               1
     1  S   -0.128422
     2  H    0.064211
     3  H    0.064211
 Sum of Mulliken charges =   0.00000

 Dipole moment (field-independent basis, Debye):
    X=              0.0000    Y=              0.0000    Z=             -1.6410  Tot=              1.6410
 Quadrupole moment (field-independent basis, Debye-Ang):
   XX=            -16.3513   YY=            -10.7496   ZZ=            -15.0329
   XY=              0.0000   XZ=              0.0000   YZ=              0.0000

 Normal termination of Gaussian 09 at Tue Sep 30 07:33:05 2014.
