 Gaussian 09, Revision D.01,
 Gaussian 09:  ES64L-G09RevD.01 24-Apr-2013

 -----------------
 #RHF 6-31G(d',p')
 -----------------

 -------------------
 H2S.r1.55theta134.0
 -------------------
 Symbolic Z-matrix:
 Charge =  0 Multiplicity = 1

                         Standard orientation:
 ---------------------------------------------------------------------
 Center     Atomic      Atomic             Coordinates (Angstroms)
 Number     Number       Type             X           Y           Z
 ---------------------------------------------------------------------
      1         16           0        0.000000    0.000000    0.067293
      2          1           0        0.000000    1.426783   -0.538341
      3          1           0        0.000000   -1.426783   -0.538341
 ---------------------------------------------------------------------

 SCF Done:  E(RHF) =  -398.596585086     A.U. after   10 cycles

 The electronic state is 1-A1.
 Alpha  occ. eigenvalues --  -91.97458  -8.97896  -6.66153  -6.66048  -6.65852
 Alpha  occ. eigenvalues --   -0.93211  -0.58061  -0.41915  -0.37982
 Alpha virt. eigenvalues --    0.05521   0.18801   0.46656   0.50720   0.53246
 Alpha virt. eigenvalues --    0.53662   0.87596   0.93631   0.95970   1.01441
 Alpha virt. eigenvalues --    1.02406   1.15025   1.19285   1.59181   1.59406

 Mulliken charges:
               1
     1  S   -0.172582
     2  H    0.086291
     3  H    0.086291
 Sum of Mulliken charges =   0.00000

 Dipole moment (field-independent basis, Debye):
    X=              0.0000    Y=              0.0000    Z=             -1.3608  Tot=              1.3608
 Quadrupole moment (field-independent basis, Debye-Ang):
   XX=            -17.2784   YY=            -10.2104   ZZ=            -15.5045
   XY=              0.0000   XZ=              0.0000   YZ=              0.0000

 Normal termination of Gaussian 09 at Tue Sep 30 07:40:24 2014.
