 Gaussian 09, Revision D.01,
 Gaussian 09:  ES64L-G09RevD.01 24-Apr-2013

 -----------------
 #RHF 6-31G(d',p')
 -----------------

 ------------------
 H2S.r1.35theta75.0
 ------------------
 Symbolic Z-matrix:
 Charge =  0 Multiplicity = 1

                         Standard orientation:
 ---------------------------------------------------------------------
 Center     Atomic      Atomic             Coordinates (Angstroms)
 Number     Number       Type             X           Y           Z
 ---------------------------------------------------------------------
      1         16           0        0.000000    0.000000    0.119003
      2          1           0        0.000000    0.821828   -0.952024
      3          1           0        0.000000   -0.821828   -0.952024
 ---------------------------------------------------------------------

 SCF Done:  E(RHF) =  -398.664332534     A.U. after   10 cycles

 The electronic state is 1-A1.
 Alpha  occ. eigenvalues --  -91.95948  -8.96987  -6.65216  -6.65179  -6.64894
 Alpha  occ. eigenvalues --   -0.98680  -0.54616  -0.52920  -0.38512
 Alpha virt. eigenvalues --    0.15165   0.20974   0.47559   0.49438   0.50253
 Alpha virt. eigenvalues --    0.53477   0.86832   0.88338   0.92924   0.96575
 Alpha virt. eigenvalues --    0.99677   1.30583   1.34858   1.67300   1.67914

 Mulliken charges:
               1
     1  S   -0.043207
     2  H    0.021604
     3  H    0.021604
 Sum of Mulliken charges =   0.00000

 Dipole moment (field-independent basis, Debye):
    X=              0.0000    Y=              0.0000    Z=             -1.2340  Tot=              1.2340
 Quadrupole moment (field-independent basis, Debye-Ang):
   XX=            -16.7086   YY=            -13.2095   ZZ=            -12.9828
   XY=              0.0000   XZ=              0.0000   YZ=              0.0000

 Normal termination of Gaussian 09 at Tue Sep 30 07:35:33 2014.
