 Gaussian 09, Revision D.01,
 Gaussian 09:  ES64L-G09RevD.01 24-Apr-2013

 -----------------
 #RHF 6-31G(d',p')
 -----------------

 ------------------
 H2S.r1.45theta72.0
 ------------------
 Symbolic Z-matrix:
 Charge =  0 Multiplicity = 1

                         Standard orientation:
 ---------------------------------------------------------------------
 Center     Atomic      Atomic             Coordinates (Angstroms)
 Number     Number       Type             X           Y           Z
 ---------------------------------------------------------------------
      1         16           0        0.000000    0.000000    0.130342
      2          1           0        0.000000    0.852289   -1.042733
      3          1           0        0.000000   -0.852289   -1.042733
 ---------------------------------------------------------------------

 SCF Done:  E(RHF) =  -398.650154352     A.U. after   10 cycles

 The electronic state is 1-A1.
 Alpha  occ. eigenvalues --  -91.97341  -8.97964  -6.66165  -6.66129  -6.65862
 Alpha  occ. eigenvalues --   -0.96250  -0.52485  -0.51618  -0.38545
 Alpha virt. eigenvalues --    0.12699   0.17553   0.49367   0.50280   0.50389
 Alpha virt. eigenvalues --    0.53393   0.89043   0.89596   0.94030   0.96916
 Alpha virt. eigenvalues --    0.98016   1.25044   1.25622   1.59646   1.63743

 Mulliken charges:
               1
     1  S   -0.060394
     2  H    0.030197
     3  H    0.030197
 Sum of Mulliken charges =   0.00000

 Dipole moment (field-independent basis, Debye):
    X=              0.0000    Y=              0.0000    Z=             -1.2312  Tot=              1.2312
 Quadrupole moment (field-independent basis, Debye-Ang):
   XX=            -16.9566   YY=            -13.5385   ZZ=            -12.8147
   XY=              0.0000   XZ=              0.0000   YZ=              0.0000

 Normal termination of Gaussian 09 at Tue Sep 30 07:37:36 2014.
