 Gaussian 09, Revision D.01,
 Gaussian 09:  ES64L-G09RevD.01 24-Apr-2013

 -----------------
 #RHF 6-31G(d',p')
 -----------------

 -------------------
 H2S.r0.85theta144.0
 -------------------
 Symbolic Z-matrix:
 Charge =  0 Multiplicity = 1

                         Standard orientation:
 ---------------------------------------------------------------------
 Center     Atomic      Atomic             Coordinates (Angstroms)
 Number     Number       Type             X           Y           Z
 ---------------------------------------------------------------------
      1         16           0        0.000000    0.000000    0.029185
      2          1           0        0.000000    0.808398   -0.233480
      3          1           0        0.000000   -0.808398   -0.233480
 ---------------------------------------------------------------------

 SCF Done:  E(RHF) =  -397.968512006     A.U. after   10 cycles

 The electronic state is 1-A1.
 Alpha  occ. eigenvalues --  -91.87655  -8.95900  -6.65704  -6.62942  -6.62600
 Alpha  occ. eigenvalues --   -1.15665  -0.85246  -0.42999  -0.40007
 Alpha virt. eigenvalues --    0.20192   0.27503   0.39317   0.48776   0.51875
 Alpha virt. eigenvalues --    0.52081   0.83660   0.84323   0.97611   1.00828
 Alpha virt. eigenvalues --    1.00964   1.62783   1.74863   1.87917   2.16888

 Mulliken charges:
               1
     1  S    0.189186
     2  H   -0.094593
     3  H   -0.094593
 Sum of Mulliken charges =   0.00000

 Dipole moment (field-independent basis, Debye):
    X=              0.0000    Y=              0.0000    Z=             -1.5413  Tot=              1.5413
 Quadrupole moment (field-independent basis, Debye-Ang):
   XX=            -15.2076   YY=            -11.2328   ZZ=            -14.5670
   XY=              0.0000   XZ=              0.0000   YZ=              0.0000

 Normal termination of Gaussian 09 at Tue Sep 30 07:26:01 2014.
