 Gaussian 09, Revision D.01,
 Gaussian 09:  ES64L-G09RevD.01 24-Apr-2013

 -----------------
 #RHF 6-31G(d',p')
 -----------------

 ------------------
 H2S.r1.10theta82.0
 ------------------
 Symbolic Z-matrix:
 Charge =  0 Multiplicity = 1

                         Standard orientation:
 ---------------------------------------------------------------------
 Center     Atomic      Atomic             Coordinates (Angstroms)
 Number     Number       Type             X           Y           Z
 ---------------------------------------------------------------------
      1         16           0        0.000000    0.000000    0.092242
      2          1           0        0.000000    0.721665   -0.737938
      3          1           0        0.000000   -0.721665   -0.737938
 ---------------------------------------------------------------------

 SCF Done:  E(RHF) =  -398.579789571     A.U. after   10 cycles

 The electronic state is 1-A1.
 Alpha  occ. eigenvalues --  -91.91497  -8.94592  -6.62880  -6.62875  -6.62295
 Alpha  occ. eigenvalues --   -1.07125  -0.63334  -0.53286  -0.38681
 Alpha virt. eigenvalues --    0.20470   0.29783   0.39281   0.47393   0.51853
 Alpha virt. eigenvalues --    0.53295   0.82835   0.86873   0.92363   0.93850
 Alpha virt. eigenvalues --    1.06684   1.48846   1.60182   1.81774   1.89577

 Mulliken charges:
               1
     1  S   -0.002189
     2  H    0.001094
     3  H    0.001094
 Sum of Mulliken charges =   0.00000

 Dipole moment (field-independent basis, Debye):
    X=              0.0000    Y=              0.0000    Z=             -1.2691  Tot=              1.2691
 Quadrupole moment (field-independent basis, Debye-Ang):
   XX=            -16.0452   YY=            -12.4699   ZZ=            -13.1437
   XY=              0.0000   XZ=              0.0000   YZ=              0.0000

 Normal termination of Gaussian 09 at Tue Sep 30 07:30:26 2014.
