 Gaussian 09, Revision D.01,
 Gaussian 09:  ES64L-G09RevD.01 24-Apr-2013

 -----------------
 #RHF 6-31G(d',p')
 -----------------

 -------------------
 H2S.r1.05theta131.0
 -------------------
 Symbolic Z-matrix:
 Charge =  0 Multiplicity = 1

                         Standard orientation:
 ---------------------------------------------------------------------
 Center     Atomic      Atomic             Coordinates (Angstroms)
 Number     Number       Type             X           Y           Z
 ---------------------------------------------------------------------
      1         16           0        0.000000    0.000000    0.048381
      2          1           0        0.000000    0.955459   -0.387047
      3          1           0        0.000000   -0.955459   -0.387047
 ---------------------------------------------------------------------

 SCF Done:  E(RHF) =  -398.495814634     A.U. after   10 cycles

 The electronic state is 1-A1.
 Alpha  occ. eigenvalues --  -91.90540  -8.94506  -6.63248  -6.62470  -6.62218
 Alpha  occ. eigenvalues --   -1.07458  -0.76059  -0.44290  -0.38883
 Alpha virt. eigenvalues --    0.21204   0.27478   0.37908   0.44233   0.52959
 Alpha virt. eigenvalues --    0.53003   0.85674   0.87247   0.96692   0.99597
 Alpha virt. eigenvalues --    1.00118   1.48055   1.56016   1.80376   1.90367

 Mulliken charges:
               1
     1  S   -0.059440
     2  H    0.029720
     3  H    0.029720
 Sum of Mulliken charges =   0.00000

 Dipole moment (field-independent basis, Debye):
    X=              0.0000    Y=              0.0000    Z=             -1.6773  Tot=              1.6773
 Quadrupole moment (field-independent basis, Debye-Ang):
   XX=            -15.8811   YY=            -11.0267   ZZ=            -14.6996
   XY=              0.0000   XZ=              0.0000   YZ=              0.0000

 Normal termination of Gaussian 09 at Tue Sep 30 07:29:57 2014.
