 Gaussian 09, Revision D.01,
 Gaussian 09:  ES64L-G09RevD.01 24-Apr-2013

 -----------------
 #RHF 6-31G(d',p')
 -----------------

 ------------------
 H2S.r0.85theta79.0
 ------------------
 Symbolic Z-matrix:
 Charge =  0 Multiplicity = 1

                         Standard orientation:
 ---------------------------------------------------------------------
 Center     Atomic      Atomic             Coordinates (Angstroms)
 Number     Number       Type             X           Y           Z
 ---------------------------------------------------------------------
      1         16           0        0.000000    0.000000    0.072876
      2          1           0        0.000000    0.540666   -0.583005
      3          1           0        0.000000   -0.540666   -0.583005
 ---------------------------------------------------------------------

 SCF Done:  E(RHF) =  -398.004346634     A.U. after    9 cycles

 The electronic state is 1-A1.
 Alpha  occ. eigenvalues --  -91.87073  -8.94896  -6.63525  -6.63034  -6.61422
 Alpha  occ. eigenvalues --   -1.19775  -0.68912  -0.54880  -0.39539
 Alpha virt. eigenvalues --    0.22717   0.26940   0.42442   0.48011   0.52349
 Alpha virt. eigenvalues --    0.52368   0.84881   0.86818   0.92313   0.94536
 Alpha virt. eigenvalues --    1.08310   1.75010   1.81558   1.99983   2.03395

 Mulliken charges:
               1
     1  S    0.172979
     2  H   -0.086489
     3  H   -0.086489
 Sum of Mulliken charges =   0.00000

 Dipole moment (field-independent basis, Debye):
    X=              0.0000    Y=              0.0000    Z=             -1.1990  Tot=              1.1990
 Quadrupole moment (field-independent basis, Debye-Ang):
   XX=            -15.3877   YY=            -12.2272   ZZ=            -12.8092
   XY=              0.0000   XZ=              0.0000   YZ=              0.0000

 Normal termination of Gaussian 09 at Tue Sep 30 07:25:17 2014.
