 Gaussian 09, Revision D.01,
 Gaussian 09:  ES64L-G09RevD.01 24-Apr-2013

 -----------------
 #RHF 6-31G(d',p')
 -----------------

 -------------------
 H2S.r1.05theta160.0
 -------------------
 Symbolic Z-matrix:
 Charge =  0 Multiplicity = 1

                         Standard orientation:
 ---------------------------------------------------------------------
 Center     Atomic      Atomic             Coordinates (Angstroms)
 Number     Number       Type             X           Y           Z
 ---------------------------------------------------------------------
      1         16           0        0.000000    0.000000    0.020259
      2          1           0        0.000000    1.034048   -0.162072
      3          1           0        0.000000   -1.034048   -0.162072
 ---------------------------------------------------------------------

 SCF Done:  E(RHF) =  -398.437570234     A.U. after   10 cycles

 The electronic state is 1-A1.
 Alpha  occ. eigenvalues --  -91.90616  -8.94792  -6.63736  -6.62730  -6.62674
 Alpha  occ. eigenvalues --   -1.07249  -0.78258  -0.40025  -0.38986
 Alpha virt. eigenvalues --    0.14188   0.36085   0.38115   0.46109   0.52797
 Alpha virt. eigenvalues --    0.53015   0.79483   0.83130   0.94581   1.02964
 Alpha virt. eigenvalues --    1.02997   1.43845   1.61079   1.67675   1.87271

 Mulliken charges:
               1
     1  S   -0.190400
     2  H    0.095200
     3  H    0.095200
 Sum of Mulliken charges =   0.00000

 Dipole moment (field-independent basis, Debye):
    X=              0.0000    Y=              0.0000    Z=             -1.1783  Tot=              1.1783
 Quadrupole moment (field-independent basis, Debye-Ang):
   XX=            -15.8879   YY=            -10.3835   ZZ=            -15.5875
   XY=              0.0000   XZ=              0.0000   YZ=              0.0000

 Normal termination of Gaussian 09 at Tue Sep 30 07:30:17 2014.
