 Gaussian 09, Revision D.01,
 Gaussian 09:  ES64L-G09RevD.01 24-Apr-2013

 -----------------
 #RHF 6-31G(d',p')
 -----------------

 -------------------
 H2S.r1.40theta109.0
 -------------------
 Symbolic Z-matrix:
 Charge =  0 Multiplicity = 1

                         Standard orientation:
 ---------------------------------------------------------------------
 Center     Atomic      Atomic             Coordinates (Angstroms)
 Number     Number       Type             X           Y           Z
 ---------------------------------------------------------------------
      1         16           0        0.000000    0.000000    0.090332
      2          1           0        0.000000    1.139762   -0.722653
      3          1           0        0.000000   -1.139762   -0.722653
 ---------------------------------------------------------------------

 SCF Done:  E(RHF) =  -398.664401439     A.U. after   10 cycles

 The electronic state is 1-A1.
 Alpha  occ. eigenvalues --  -91.96327  -8.97155  -6.65446  -6.65317  -6.65121
 Alpha  occ. eigenvalues --   -0.96484  -0.60165  -0.46750  -0.38263
 Alpha virt. eigenvalues --    0.16210   0.17966   0.47316   0.47812   0.52041
 Alpha virt. eigenvalues --    0.53585   0.90901   0.92181   0.92446   0.96380
 Alpha virt. eigenvalues --    0.98444   1.24807   1.37330   1.56535   1.69029

 Mulliken charges:
               1
     1  S   -0.093895
     2  H    0.046947
     3  H    0.046947
 Sum of Mulliken charges =   0.00000

 Dipole moment (field-independent basis, Debye):
    X=              0.0000    Y=              0.0000    Z=             -1.4011  Tot=              1.4011
 Quadrupole moment (field-independent basis, Debye-Ang):
   XX=            -16.8460   YY=            -11.5716   ZZ=            -14.4220
   XY=              0.0000   XZ=              0.0000   YZ=              0.0000

 Normal termination of Gaussian 09 at Tue Sep 30 07:36:59 2014.
