 Gaussian 09, Revision D.01,
 Gaussian 09:  ES64L-G09RevD.01 24-Apr-2013

 -----------------
 #RHF 6-31G(d',p')
 -----------------

 -------------------
 H2S.r1.20theta112.0
 -------------------
 Symbolic Z-matrix:
 Charge =  0 Multiplicity = 1

                         Standard orientation:
 ---------------------------------------------------------------------
 Center     Atomic      Atomic             Coordinates (Angstroms)
 Number     Number       Type             X           Y           Z
 ---------------------------------------------------------------------
      1         16           0        0.000000    0.000000    0.074559
      2          1           0        0.000000    0.994845   -0.596472
      3          1           0        0.000000   -0.994845   -0.596472
 ---------------------------------------------------------------------

 SCF Done:  E(RHF) =  -398.643956913     A.U. after   10 cycles

 The electronic state is 1-A1.
 Alpha  occ. eigenvalues --  -91.93170  -8.95290  -6.63707  -6.63447  -6.63201
 Alpha  occ. eigenvalues --   -1.02128  -0.67400  -0.47210  -0.38422
 Alpha virt. eigenvalues --    0.22334   0.22475   0.41750   0.45703   0.52538
 Alpha virt. eigenvalues --    0.53491   0.89184   0.89435   0.92385   0.97655
 Alpha virt. eigenvalues --    0.98649   1.40353   1.52775   1.66460   1.80398

 Mulliken charges:
               1
     1  S   -0.074049
     2  H    0.037025
     3  H    0.037025
 Sum of Mulliken charges =   0.00000

 Dipole moment (field-independent basis, Debye):
    X=              0.0000    Y=              0.0000    Z=             -1.5340  Tot=              1.5340
 Quadrupole moment (field-independent basis, Debye-Ang):
   XX=            -16.3155   YY=            -11.4638   ZZ=            -14.3278
   XY=              0.0000   XZ=              0.0000   YZ=              0.0000

 Normal termination of Gaussian 09 at Tue Sep 30 07:32:51 2014.
