 Gaussian 09, Revision D.01,
 Gaussian 09:  ES64L-G09RevD.01 24-Apr-2013

 -----------------
 #RHF 6-31G(d',p')
 -----------------

 -------------------
 H2S.r0.60theta155.0
 -------------------
 Symbolic Z-matrix:
 Charge =  0 Multiplicity = 1

                         Standard orientation:
 ---------------------------------------------------------------------
 Center     Atomic      Atomic             Coordinates (Angstroms)
 Number     Number       Type             X           Y           Z
 ---------------------------------------------------------------------
      1         16           0        0.000000    0.000000    0.014429
      2          1           0        0.000000    0.585778   -0.115434
      3          1           0        0.000000   -0.585778   -0.115434
 ---------------------------------------------------------------------

 SCF Done:  E(RHF) =  -395.806660414     A.U. after   10 cycles

 The electronic state is 1-A1.
 Alpha  occ. eigenvalues --  -91.92892  -9.11839  -6.87756  -6.74257  -6.73618
 Alpha  occ. eigenvalues --   -1.22673  -0.89061  -0.43516  -0.42201
 Alpha virt. eigenvalues --    0.17191   0.24161   0.49649   0.49705   0.52968
 Alpha virt. eigenvalues --    0.66143   0.78718   0.85477   0.93660   0.99472
 Alpha virt. eigenvalues --    0.99493   2.01164   2.02682   2.03513   2.46547

 Mulliken charges:
               1
     1  S    0.796019
     2  H   -0.398009
     3  H   -0.398009
 Sum of Mulliken charges =   0.00000

 Dipole moment (field-independent basis, Debye):
    X=              0.0000    Y=              0.0000    Z=             -1.0570  Tot=              1.0570
 Quadrupole moment (field-independent basis, Debye-Ang):
   XX=            -14.3108   YY=            -11.7349   ZZ=            -14.0382
   XY=              0.0000   XZ=              0.0000   YZ=              0.0000

 Normal termination of Gaussian 09 at Tue Sep 30 07:21:01 2014.
