 Gaussian 09, Revision D.01,
 Gaussian 09:  ES64L-G09RevD.01 24-Apr-2013

 -----------------
 #RHF 6-31G(d',p')
 -----------------

 ------------------
 H2S.r0.85theta90.0
 ------------------
 Symbolic Z-matrix:
 Charge =  0 Multiplicity = 1

                         Standard orientation:
 ---------------------------------------------------------------------
 Center     Atomic      Atomic             Coordinates (Angstroms)
 Number     Number       Type             X           Y           Z
 ---------------------------------------------------------------------
      1         16           0        0.000000    0.000000    0.066782
      2          1           0        0.000000    0.601041   -0.534258
      3          1           0        0.000000   -0.601041   -0.534258
 ---------------------------------------------------------------------

 SCF Done:  E(RHF) =  -398.018475738     A.U. after   10 cycles

 The electronic state is 1-A1.
 Alpha  occ. eigenvalues --  -91.86987  -8.94855  -6.63325  -6.63150  -6.61405
 Alpha  occ. eigenvalues --   -1.18046  -0.73316  -0.52660  -0.39494
 Alpha virt. eigenvalues --    0.23006   0.27448   0.42851   0.47287   0.52392
 Alpha virt. eigenvalues --    0.52588   0.83454   0.87722   0.92571   0.94225
 Alpha virt. eigenvalues --    1.08422   1.73607   1.82347   1.99202   2.15413

 Mulliken charges:
               1
     1  S    0.192671
     2  H   -0.096335
     3  H   -0.096335
 Sum of Mulliken charges =   0.00000

 Dipole moment (field-independent basis, Debye):
    X=              0.0000    Y=              0.0000    Z=             -1.3068  Tot=              1.3068
 Quadrupole moment (field-independent basis, Debye-Ang):
   XX=            -15.3591   YY=            -11.9383   ZZ=            -13.1383
   XY=              0.0000   XZ=              0.0000   YZ=              0.0000

 Normal termination of Gaussian 09 at Tue Sep 30 07:25:25 2014.
