 Gaussian 09, Revision D.01,
 Gaussian 09:  ES64L-G09RevD.01 24-Apr-2013

 -----------------
 #RHF 6-31G(d',p')
 -----------------

 -------------------
 H2S.r1.55theta150.0
 -------------------
 Symbolic Z-matrix:
 Charge =  0 Multiplicity = 1

                         Standard orientation:
 ---------------------------------------------------------------------
 Center     Atomic      Atomic             Coordinates (Angstroms)
 Number     Number       Type             X           Y           Z
 ---------------------------------------------------------------------
      1         16           0        0.000000    0.000000    0.044574
      2          1           0        0.000000    1.497185   -0.356595
      3          1           0        0.000000   -1.497185   -0.356595
 ---------------------------------------------------------------------

 SCF Done:  E(RHF) =  -398.561575826     A.U. after   10 cycles

 The electronic state is 1-A1.
 Alpha  occ. eigenvalues --  -91.96650  -8.97181  -6.65483  -6.65357  -6.65189
 Alpha  occ. eigenvalues --   -0.92820  -0.58766  -0.39309  -0.37550
 Alpha virt. eigenvalues --    0.01594   0.21978   0.45736   0.53674   0.53970
 Alpha virt. eigenvalues --    0.54123   0.84871   0.92888   0.98170   1.03842
 Alpha virt. eigenvalues --    1.04068   1.07174   1.22013   1.56413   1.59376

 Mulliken charges:
               1
     1  S   -0.266941
     2  H    0.133470
     3  H    0.133470
 Sum of Mulliken charges =   0.00000

 Dipole moment (field-independent basis, Debye):
    X=              0.0000    Y=              0.0000    Z=             -1.3417  Tot=              1.3417
 Quadrupole moment (field-independent basis, Debye-Ang):
   XX=            -17.3894   YY=             -9.1254   ZZ=            -16.1418
   XY=              0.0000   XZ=              0.0000   YZ=              0.0000

 Normal termination of Gaussian 09 at Tue Sep 30 07:40:35 2014.
