 Gaussian 09, Revision D.01,
 Gaussian 09:  ES64L-G09RevD.01 24-Apr-2013

 -----------------
 #RHF 6-31G(d',p')
 -----------------

 -------------------
 H2S.r0.80theta159.0
 -------------------
 Symbolic Z-matrix:
 Charge =  0 Multiplicity = 1

                         Standard orientation:
 ---------------------------------------------------------------------
 Center     Atomic      Atomic             Coordinates (Angstroms)
 Number     Number       Type             X           Y           Z
 ---------------------------------------------------------------------
      1         16           0        0.000000    0.000000    0.016199
      2          1           0        0.000000    0.786604   -0.129590
      3          1           0        0.000000   -0.786604   -0.129590
 ---------------------------------------------------------------------

 SCF Done:  E(RHF) =  -397.704261453     A.U. after   10 cycles

 The electronic state is 1-A1.
 Alpha  occ. eigenvalues --  -91.87459  -8.97416  -6.67989  -6.63812  -6.63656
 Alpha  occ. eigenvalues --   -1.17519  -0.87856  -0.41536  -0.40489
 Alpha virt. eigenvalues --    0.17946   0.27539   0.40719   0.51374   0.51545
 Alpha virt. eigenvalues --    0.56912   0.80400   0.83364   0.95276   1.01429
 Alpha virt. eigenvalues --    1.01448   1.71345   1.80875   1.85657   2.16528

 Mulliken charges:
               1
     1  S    0.247515
     2  H   -0.123757
     3  H   -0.123757
 Sum of Mulliken charges =   0.00000

 Dipole moment (field-independent basis, Debye):
    X=              0.0000    Y=              0.0000    Z=             -1.1048  Tot=              1.1048
 Quadrupole moment (field-independent basis, Debye-Ang):
   XX=            -14.9863   YY=            -11.2885   ZZ=            -14.7383
   XY=              0.0000   XZ=              0.0000   YZ=              0.0000

 Normal termination of Gaussian 09 at Tue Sep 30 07:25:10 2014.
