 Gaussian 09, Revision D.01,
 Gaussian 09:  ES64L-G09RevD.01 24-Apr-2013

 -----------------
 #RHF 6-31G(d',p')
 -----------------

 ------------------
 H2S.r1.70theta87.0
 ------------------
 Symbolic Z-matrix:
 Charge =  0 Multiplicity = 1

                         Standard orientation:
 ---------------------------------------------------------------------
 Center     Atomic      Atomic             Coordinates (Angstroms)
 Number     Number       Type             X           Y           Z
 ---------------------------------------------------------------------
      1         16           0        0.000000    0.000000    0.137015
      2          1           0        0.000000    1.170203   -1.096121
      3          1           0        0.000000   -1.170203   -1.096121
 ---------------------------------------------------------------------

 SCF Done:  E(RHF) =  -398.590401652     A.U. after   10 cycles

 The electronic state is 1-A1.
 Alpha  occ. eigenvalues --  -91.99920  -8.99968  -6.68144  -6.68069  -6.67814
 Alpha  occ. eigenvalues --   -0.91789  -0.49324  -0.47377  -0.38665
 Alpha virt. eigenvalues --    0.08074   0.10048   0.49004   0.51796   0.53050
 Alpha virt. eigenvalues --    0.57899   0.91196   0.93805   0.95765   0.99505
 Alpha virt. eigenvalues --    0.99610   1.10056   1.15164   1.55944   1.56972

 Mulliken charges:
               1
     1  S   -0.114346
     2  H    0.057173
     3  H    0.057173
 Sum of Mulliken charges =   0.00000

 Dipole moment (field-independent basis, Debye):
    X=              0.0000    Y=              0.0000    Z=             -1.1868  Tot=              1.1868
 Quadrupole moment (field-independent basis, Debye-Ang):
   XX=            -17.4808   YY=            -12.8701   ZZ=            -13.4174
   XY=              0.0000   XZ=              0.0000   YZ=              0.0000

 Normal termination of Gaussian 09 at Tue Sep 30 07:43:00 2014.
