 Gaussian 09, Revision D.01,
 Gaussian 09:  ES64L-G09RevD.01 24-Apr-2013

 -----------------
 #RHF 6-31G(d',p')
 -----------------

 -------------------
 H2S.r1.80theta115.0
 -------------------
 Symbolic Z-matrix:
 Charge =  0 Multiplicity = 1

                         Standard orientation:
 ---------------------------------------------------------------------
 Center     Atomic      Atomic             Coordinates (Angstroms)
 Number     Number       Type             X           Y           Z
 ---------------------------------------------------------------------
      1         16           0        0.000000    0.000000    0.107460
      2          1           0        0.000000    1.518105   -0.859679
      3          1           0        0.000000   -1.518105   -0.859679
 ---------------------------------------------------------------------

 SCF Done:  E(RHF) =  -398.544315685     A.U. after   10 cycles

 The electronic state is 1-A1.
 Alpha  occ. eigenvalues --  -92.00301  -9.00275  -6.68437  -6.68358  -6.68096
 Alpha  occ. eigenvalues --   -0.90589  -0.50290  -0.43007  -0.38565
 Alpha virt. eigenvalues --    0.03605   0.09053   0.49521   0.53033   0.53525
 Alpha virt. eigenvalues --    0.54836   0.93611   0.94247   0.99572   1.00232
 Alpha virt. eigenvalues --    1.02015   1.06484   1.09158   1.53773   1.54966

 Mulliken charges:
               1
     1  S   -0.144143
     2  H    0.072072
     3  H    0.072072
 Sum of Mulliken charges =   0.00000

 Dipole moment (field-independent basis, Debye):
    X=              0.0000    Y=              0.0000    Z=             -1.0943  Tot=              1.0943
 Quadrupole moment (field-independent basis, Debye-Ang):
   XX=            -17.6764   YY=            -11.1306   ZZ=            -14.7853
   XY=              0.0000   XZ=              0.0000   YZ=              0.0000

 Normal termination of Gaussian 09 at Tue Sep 30 07:45:25 2014.
