 Gaussian 09, Revision D.01,
 Gaussian 09:  ES64L-G09RevD.01 24-Apr-2013

 -----------------
 #RHF 6-31G(d',p')
 -----------------

 -------------------
 H2S.r0.70theta114.0
 -------------------
 Symbolic Z-matrix:
 Charge =  0 Multiplicity = 1

                         Standard orientation:
 ---------------------------------------------------------------------
 Center     Atomic      Atomic             Coordinates (Angstroms)
 Number     Number       Type             X           Y           Z
 ---------------------------------------------------------------------
      1         16           0        0.000000    0.000000    0.042361
      2          1           0        0.000000    0.587069   -0.338887
      3          1           0        0.000000   -0.587069   -0.338887
 ---------------------------------------------------------------------

 SCF Done:  E(RHF) =  -397.059436236     A.U. after   10 cycles

 The electronic state is 1-A1.
 Alpha  occ. eigenvalues --  -91.86936  -9.00468  -6.70793  -6.67238  -6.64941
 Alpha  occ. eigenvalues --   -1.21812  -0.83787  -0.48572  -0.40582
 Alpha virt. eigenvalues --    0.21923   0.23885   0.49479   0.50356   0.51260
 Alpha virt. eigenvalues --    0.52597   0.87935   0.89332   0.91603   0.97747
 Alpha virt. eigenvalues --    1.00619   1.94062   1.96837   2.15034   2.15442

 Mulliken charges:
               1
     1  S    0.527367
     2  H   -0.263683
     3  H   -0.263683
 Sum of Mulliken charges =   0.00000

 Dipole moment (field-independent basis, Debye):
    X=              0.0000    Y=              0.0000    Z=             -1.4666  Tot=              1.4666
 Quadrupole moment (field-independent basis, Debye-Ang):
   XX=            -14.8342   YY=            -11.6060   ZZ=            -13.5350
   XY=              0.0000   XZ=              0.0000   YZ=              0.0000

 Normal termination of Gaussian 09 at Tue Sep 30 07:22:36 2014.
