 Gaussian 09, Revision D.01,
 Gaussian 09:  ES64L-G09RevD.01 24-Apr-2013

 -----------------
 #RHF 6-31G(d',p')
 -----------------

 -------------------
 H2S.r1.60theta155.0
 -------------------
 Symbolic Z-matrix:
 Charge =  0 Multiplicity = 1

                         Standard orientation:
 ---------------------------------------------------------------------
 Center     Atomic      Atomic             Coordinates (Angstroms)
 Number     Number       Type             X           Y           Z
 ---------------------------------------------------------------------
      1         16           0        0.000000    0.000000    0.038478
      2          1           0        0.000000    1.562074   -0.307825
      3          1           0        0.000000   -1.562074   -0.307825
 ---------------------------------------------------------------------

 SCF Done:  E(RHF) =  -398.536266791     A.U. after   11 cycles

 The electronic state is 1-A1.
 Alpha  occ. eigenvalues --  -91.96782  -8.97230  -6.65525  -6.65396  -6.65227
 Alpha  occ. eigenvalues --   -0.91853  -0.57340  -0.38345  -0.37364
 Alpha virt. eigenvalues --   -0.00669   0.21050   0.46277   0.54061   0.54302
 Alpha virt. eigenvalues --    0.56580   0.84750   0.94154   0.97968   1.04072
 Alpha virt. eigenvalues --    1.04498   1.04617   1.19172   1.55135   1.56676

 Mulliken charges:
               1
     1  S   -0.306069
     2  H    0.153035
     3  H    0.153035
 Sum of Mulliken charges =   0.00000

 Dipole moment (field-independent basis, Debye):
    X=              0.0000    Y=              0.0000    Z=             -1.2466  Tot=              1.2466
 Quadrupole moment (field-independent basis, Debye-Ang):
   XX=            -17.5403   YY=             -8.6405   ZZ=            -16.3667
   XY=              0.0000   XZ=              0.0000   YZ=              0.0000

 Normal termination of Gaussian 09 at Tue Sep 30 07:41:41 2014.
