 Gaussian 09, Revision D.01,
 Gaussian 09:  ES64L-G09RevD.01 24-Apr-2013

 -----------------
 #RHF 6-31G(d',p')
 -----------------

 -------------------
 H2S.r1.35theta116.0
 -------------------
 Symbolic Z-matrix:
 Charge =  0 Multiplicity = 1

                         Standard orientation:
 ---------------------------------------------------------------------
 Center     Atomic      Atomic             Coordinates (Angstroms)
 Number     Number       Type             X           Y           Z
 ---------------------------------------------------------------------
      1         16           0        0.000000    0.000000    0.079488
      2          1           0        0.000000    1.144865   -0.635903
      3          1           0        0.000000   -1.144865   -0.635903
 ---------------------------------------------------------------------

 SCF Done:  E(RHF) =  -398.661428547     A.U. after   10 cycles

 The electronic state is 1-A1.
 Alpha  occ. eigenvalues --  -91.95507  -8.96596  -6.64924  -6.64766  -6.64578
 Alpha  occ. eigenvalues --   -0.97623  -0.62745  -0.45837  -0.38226
 Alpha virt. eigenvalues --    0.16189   0.20319   0.45093   0.46974   0.52543
 Alpha virt. eigenvalues --    0.53627   0.90434   0.90744   0.93522   0.97050
 Alpha virt. eigenvalues --    0.99015   1.28927   1.37559   1.60378   1.70480

 Mulliken charges:
               1
     1  S   -0.103054
     2  H    0.051527
     3  H    0.051527
 Sum of Mulliken charges =   0.00000

 Dipole moment (field-independent basis, Debye):
    X=              0.0000    Y=              0.0000    Z=             -1.4786  Tot=              1.4786
 Quadrupole moment (field-independent basis, Debye-Ang):
   XX=            -16.7332   YY=            -11.2579   ZZ=            -14.6525
   XY=              0.0000   XZ=              0.0000   YZ=              0.0000

 Normal termination of Gaussian 09 at Tue Sep 30 07:36:01 2014.
