 Gaussian 09, Revision D.01,
 Gaussian 09:  ES64L-G09RevD.01 24-Apr-2013

 -----------------
 #RHF 6-31G(d',p')
 -----------------

 ------------------
 H2S.r1.75theta85.0
 ------------------
 Symbolic Z-matrix:
 Charge =  0 Multiplicity = 1

                         Standard orientation:
 ---------------------------------------------------------------------
 Center     Atomic      Atomic             Coordinates (Angstroms)
 Number     Number       Type             X           Y           Z
 ---------------------------------------------------------------------
      1         16           0        0.000000    0.000000    0.143359
      2          1           0        0.000000    1.182283   -1.146876
      3          1           0        0.000000   -1.182283   -1.146876
 ---------------------------------------------------------------------

 SCF Done:  E(RHF) =  -398.572523326     A.U. after   10 cycles

 The electronic state is 1-A1.
 Alpha  occ. eigenvalues --  -92.00346  -9.00333  -6.68494  -6.68427  -6.68160
 Alpha  occ. eigenvalues --   -0.91305  -0.48064  -0.47054  -0.38740
 Alpha virt. eigenvalues --    0.06778   0.08792   0.48638   0.52368   0.52955
 Alpha virt. eigenvalues --    0.58970   0.91752   0.94150   0.96619   1.00050
 Alpha virt. eigenvalues --    1.00173   1.08347   1.12502   1.54914   1.56871

 Mulliken charges:
               1
     1  S   -0.121981
     2  H    0.060990
     3  H    0.060990
 Sum of Mulliken charges =   0.00000

 Dipole moment (field-independent basis, Debye):
    X=              0.0000    Y=              0.0000    Z=             -1.1799  Tot=              1.1799
 Quadrupole moment (field-independent basis, Debye-Ang):
   XX=            -17.5724   YY=            -13.0183   ZZ=            -13.2692
   XY=              0.0000   XZ=              0.0000   YZ=              0.0000

 Normal termination of Gaussian 09 at Tue Sep 30 07:44:01 2014.
