 Gaussian 09, Revision D.01,
 Gaussian 09:  ES64L-G09RevD.01 24-Apr-2013

 -----------------
 #RHF 6-31G(d',p')
 -----------------

 -------------------
 H2S.r1.75theta151.0
 -------------------
 Symbolic Z-matrix:
 Charge =  0 Multiplicity = 1

                         Standard orientation:
 ---------------------------------------------------------------------
 Center     Atomic      Atomic             Coordinates (Angstroms)
 Number     Number       Type             X           Y           Z
 ---------------------------------------------------------------------
      1         16           0        0.000000    0.000000    0.048685
      2          1           0        0.000000    1.694258   -0.389480
      3          1           0        0.000000   -1.694258   -0.389480
 ---------------------------------------------------------------------

 SCF Done:  E(RHF) =  -398.502436194     A.U. after   11 cycles

 The electronic state is 1-A1.
 Alpha  occ. eigenvalues --  -91.98595  -8.98770  -6.66970  -6.66869  -6.66636
 Alpha  occ. eigenvalues --   -0.90341  -0.53179  -0.38497  -0.37823
 Alpha virt. eigenvalues --   -0.02608   0.15290   0.47956   0.53599   0.53657
 Alpha virt. eigenvalues --    0.59168   0.87796   0.96905   0.97941   1.03851
 Alpha virt. eigenvalues --    1.04014   1.04043   1.10076   1.54844   1.55096

 Mulliken charges:
               1
     1  S   -0.251136
     2  H    0.125568
     3  H    0.125568
 Sum of Mulliken charges =   0.00000

 Dipole moment (field-independent basis, Debye):
    X=              0.0000    Y=              0.0000    Z=             -1.0564  Tot=              1.0564
 Quadrupole moment (field-independent basis, Debye-Ang):
   XX=            -17.7515   YY=             -9.0499   ZZ=            -16.1699
   XY=              0.0000   XZ=              0.0000   YZ=              0.0000

 Normal termination of Gaussian 09 at Tue Sep 30 07:44:48 2014.
