 Gaussian 09, Revision D.01,
 Gaussian 09:  ES64L-G09RevD.01 24-Apr-2013

 -----------------
 #RHF 6-31G(d',p')
 -----------------

 ------------------
 H2S.r1.25theta84.0
 ------------------
 Symbolic Z-matrix:
 Charge =  0 Multiplicity = 1

                         Standard orientation:
 ---------------------------------------------------------------------
 Center     Atomic      Atomic             Coordinates (Angstroms)
 Number     Number       Type             X           Y           Z
 ---------------------------------------------------------------------
      1         16           0        0.000000    0.000000    0.103215
      2          1           0        0.000000    0.836413   -0.825716
      3          1           0        0.000000   -0.836413   -0.825716
 ---------------------------------------------------------------------

 SCF Done:  E(RHF) =  -398.664004908     A.U. after   10 cycles

 The electronic state is 1-A1.
 Alpha  occ. eigenvalues --  -91.94274  -8.95926  -6.64205  -6.64135  -6.63816
 Alpha  occ. eigenvalues --   -1.01290  -0.59621  -0.52035  -0.38487
 Alpha virt. eigenvalues --    0.17963   0.24661   0.45192   0.48054   0.51293
 Alpha virt. eigenvalues --    0.53498   0.84026   0.88134   0.93418   0.94167
 Alpha virt. eigenvalues --    1.02804   1.35986   1.47462   1.72755   1.82033

 Mulliken charges:
               1
     1  S   -0.032199
     2  H    0.016099
     3  H    0.016099
 Sum of Mulliken charges =   0.00000

 Dipole moment (field-independent basis, Debye):
    X=              0.0000    Y=              0.0000    Z=             -1.2789  Tot=              1.2789
 Quadrupole moment (field-independent basis, Debye-Ang):
   XX=            -16.4426   YY=            -12.6194   ZZ=            -13.3350
   XY=              0.0000   XZ=              0.0000   YZ=              0.0000

 Normal termination of Gaussian 09 at Tue Sep 30 07:33:35 2014.
