 Gaussian 09, Revision D.01,
 Gaussian 09:  ES64L-G09RevD.01 24-Apr-2013

 -----------------
 #RHF 6-31G(d',p')
 -----------------

 ------------------
 H2S.r0.65theta76.0
 ------------------
 Symbolic Z-matrix:
 Charge =  0 Multiplicity = 1

                         Standard orientation:
 ---------------------------------------------------------------------
 Center     Atomic      Atomic             Coordinates (Angstroms)
 Number     Number       Type             X           Y           Z
 ---------------------------------------------------------------------
      1         16           0        0.000000    0.000000    0.056912
      2          1           0        0.000000    0.400180   -0.455295
      3          1           0        0.000000   -0.400180   -0.455295
 ---------------------------------------------------------------------

 SCF Done:  E(RHF) =  -396.502316306     A.U. after   10 cycles

 The electronic state is 1-A1.
 Alpha  occ. eigenvalues --  -91.88504  -9.04475  -6.73866  -6.71849  -6.67415
 Alpha  occ. eigenvalues --   -1.29110  -0.69950  -0.56123  -0.40974
 Alpha virt. eigenvalues --    0.20941   0.23170   0.47926   0.50839   0.52147
 Alpha virt. eigenvalues --    0.61590   0.87416   0.87566   0.92700   0.95285
 Alpha virt. eigenvalues --    1.01755   2.00720   2.03283   2.15978   2.27460

 Mulliken charges:
               1
     1  S    0.511401
     2  H   -0.255700
     3  H   -0.255700
 Sum of Mulliken charges =   0.00000

 Dipole moment (field-independent basis, Debye):
    X=              0.0000    Y=              0.0000    Z=             -1.0453  Tot=              1.0453
 Quadrupole moment (field-independent basis, Debye-Ang):
   XX=            -14.7959   YY=            -12.1490   ZZ=            -12.5949
   XY=              0.0000   XZ=              0.0000   YZ=              0.0000

 Normal termination of Gaussian 09 at Tue Sep 30 07:21:10 2014.
