 Gaussian 09, Revision D.01,
 Gaussian 09:  ES64L-G09RevD.01 24-Apr-2013

 -----------------
 #RHF 6-31G(d',p')
 -----------------

 -------------------
 H2S.r1.65theta118.0
 -------------------
 Symbolic Z-matrix:
 Charge =  0 Multiplicity = 1

                         Standard orientation:
 ---------------------------------------------------------------------
 Center     Atomic      Atomic             Coordinates (Angstroms)
 Number     Number       Type             X           Y           Z
 ---------------------------------------------------------------------
      1         16           0        0.000000    0.000000    0.094424
      2          1           0        0.000000    1.414326   -0.755389
      3          1           0        0.000000   -1.414326   -0.755389
 ---------------------------------------------------------------------

 SCF Done:  E(RHF) =  -398.591955970     A.U. after   10 cycles

 The electronic state is 1-A1.
 Alpha  occ. eigenvalues --  -91.98943  -8.99115  -6.67321  -6.67232  -6.67003
 Alpha  occ. eigenvalues --   -0.92021  -0.54085  -0.43752  -0.38310
 Alpha virt. eigenvalues --    0.06684   0.13243   0.49530   0.51262   0.52826
 Alpha virt. eigenvalues --    0.53338   0.91177   0.93446   0.96855   0.99352
 Alpha virt. eigenvalues --    1.01458   1.12265   1.15865   1.54928   1.59197

 Mulliken charges:
               1
     1  S   -0.134174
     2  H    0.067087
     3  H    0.067087
 Sum of Mulliken charges =   0.00000

 Dipole moment (field-independent basis, Debye):
    X=              0.0000    Y=              0.0000    Z=             -1.2255  Tot=              1.2255
 Quadrupole moment (field-independent basis, Debye-Ang):
   XX=            -17.4194   YY=            -11.0358   ZZ=            -14.9066
   XY=              0.0000   XZ=              0.0000   YZ=              0.0000

 Normal termination of Gaussian 09 at Tue Sep 30 07:42:19 2014.
