 Gaussian 09, Revision D.01,
 Gaussian 09:  ES64L-G09RevD.01 24-Apr-2013

 -----------------
 #RHF 6-31G(d',p')
 -----------------

 -------------------
 H2S.r0.85theta110.0
 -------------------
 Symbolic Z-matrix:
 Charge =  0 Multiplicity = 1

                         Standard orientation:
 ---------------------------------------------------------------------
 Center     Atomic      Atomic             Coordinates (Angstroms)
 Number     Number       Type             X           Y           Z
 ---------------------------------------------------------------------
      1         16           0        0.000000    0.000000    0.054171
      2          1           0        0.000000    0.696279   -0.433369
      3          1           0        0.000000   -0.696279   -0.433369
 ---------------------------------------------------------------------

 SCF Done:  E(RHF) =  -398.019110198     A.U. after    9 cycles

 The electronic state is 1-A1.
 Alpha  occ. eigenvalues --  -91.87069  -8.95052  -6.64090  -6.62784  -6.61643
 Alpha  occ. eigenvalues --   -1.16459  -0.79528  -0.48787  -0.39593
 Alpha virt. eigenvalues --    0.24301   0.26290   0.41395   0.46495   0.51942
 Alpha virt. eigenvalues --    0.52290   0.87509   0.88987   0.91118   0.97275
 Alpha virt. eigenvalues --    1.02987   1.75102   1.81757   1.96335   2.03818

 Mulliken charges:
               1
     1  S    0.223775
     2  H   -0.111888
     3  H   -0.111888
 Sum of Mulliken charges =   0.00000

 Dipole moment (field-independent basis, Debye):
    X=              0.0000    Y=              0.0000    Z=             -1.5334  Tot=              1.5334
 Quadrupole moment (field-independent basis, Debye-Ang):
   XX=            -15.3036   YY=            -11.5735   ZZ=            -13.6978
   XY=              0.0000   XZ=              0.0000   YZ=              0.0000

 Normal termination of Gaussian 09 at Tue Sep 30 07:25:38 2014.
