 Gaussian 09, Revision D.01,
 Gaussian 09:  ES64L-G09RevD.01 24-Apr-2013

 -----------------
 #RHF 6-31G(d',p')
 -----------------

 -------------------
 H2S.r1.30theta107.0
 -------------------
 Symbolic Z-matrix:
 Charge =  0 Multiplicity = 1

                         Standard orientation:
 ---------------------------------------------------------------------
 Center     Atomic      Atomic             Coordinates (Angstroms)
 Number     Number       Type             X           Y           Z
 ---------------------------------------------------------------------
      1         16           0        0.000000    0.000000    0.085919
      2          1           0        0.000000    1.045014   -0.687351
      3          1           0        0.000000   -1.045014   -0.687351
 ---------------------------------------------------------------------

 SCF Done:  E(RHF) =  -398.670140424     A.U. after   10 cycles

 The electronic state is 1-A1.
 Alpha  occ. eigenvalues --  -91.94887  -8.96234  -6.64569  -6.64405  -6.64191
 Alpha  occ. eigenvalues --   -0.99097  -0.63068  -0.47644  -0.38321
 Alpha virt. eigenvalues --    0.19819   0.20079   0.45128   0.46865   0.52144
 Alpha virt. eigenvalues --    0.53582   0.89462   0.91068   0.91681   0.97394
 Alpha virt. eigenvalues --    0.97888   1.31658   1.48323   1.58506   1.73969

 Mulliken charges:
               1
     1  S   -0.078512
     2  H    0.039256
     3  H    0.039256
 Sum of Mulliken charges =   0.00000

 Dipole moment (field-independent basis, Debye):
    X=              0.0000    Y=              0.0000    Z=             -1.4469  Tot=              1.4469
 Quadrupole moment (field-independent basis, Debye-Ang):
   XX=            -16.5845   YY=            -11.6603   ZZ=            -14.2611
   XY=              0.0000   XZ=              0.0000   YZ=              0.0000

 Normal termination of Gaussian 09 at Tue Sep 30 07:34:53 2014.
