 Gaussian 09, Revision D.01,
 Gaussian 09:  ES64L-G09RevD.01 24-Apr-2013

 -----------------
 #RHF 6-31G(d',p')
 -----------------

 -------------------
 H2S.r1.35theta154.0
 -------------------
 Symbolic Z-matrix:
 Charge =  0 Multiplicity = 1

                         Standard orientation:
 ---------------------------------------------------------------------
 Center     Atomic      Atomic             Coordinates (Angstroms)
 Number     Number       Type             X           Y           Z
 ---------------------------------------------------------------------
      1         16           0        0.000000    0.000000    0.033743
      2          1           0        0.000000    1.315400   -0.269941
      3          1           0        0.000000   -1.315400   -0.269941
 ---------------------------------------------------------------------

 SCF Done:  E(RHF) =  -398.585932249     A.U. after   10 cycles

 The electronic state is 1-A1.
 Alpha  occ. eigenvalues --  -91.94326  -8.95638  -6.64101  -6.63884  -6.63787
 Alpha  occ. eigenvalues --   -0.97055  -0.65753  -0.39334  -0.37650
 Alpha virt. eigenvalues --    0.06024   0.30033   0.42745   0.48459   0.53987
 Alpha virt. eigenvalues --    0.54277   0.82739   0.87516   0.98101   1.03858
 Alpha virt. eigenvalues --    1.03993   1.14812   1.38385   1.58573   1.65672

 Mulliken charges:
               1
     1  S   -0.294543
     2  H    0.147271
     3  H    0.147271
 Sum of Mulliken charges =   0.00000

 Dipole moment (field-independent basis, Debye):
    X=              0.0000    Y=              0.0000    Z=             -1.4370  Tot=              1.4370
 Quadrupole moment (field-independent basis, Debye-Ang):
   XX=            -16.9120   YY=             -9.2500   ZZ=            -16.1520
   XY=              0.0000   XZ=              0.0000   YZ=              0.0000

 Normal termination of Gaussian 09 at Tue Sep 30 07:36:28 2014.
