 Gaussian 09, Revision D.01,
 Gaussian 09:  ES64L-G09RevD.01 24-Apr-2013

 -----------------
 #RHF 6-31G(d',p')
 -----------------

 -------------------
 H2S.r1.05theta145.0
 -------------------
 Symbolic Z-matrix:
 Charge =  0 Multiplicity = 1

                         Standard orientation:
 ---------------------------------------------------------------------
 Center     Atomic      Atomic             Coordinates (Angstroms)
 Number     Number       Type             X           Y           Z
 ---------------------------------------------------------------------
      1         16           0        0.000000    0.000000    0.035082
      2          1           0        0.000000    1.001403   -0.280659
      3          1           0        0.000000   -1.001403   -0.280659
 ---------------------------------------------------------------------

 SCF Done:  E(RHF) =  -398.467276489     A.U. after   10 cycles

 The electronic state is 1-A1.
 Alpha  occ. eigenvalues --  -91.90606  -8.94666  -6.63514  -6.62596  -6.62450
 Alpha  occ. eigenvalues --   -1.07349  -0.77449  -0.41966  -0.38953
 Alpha virt. eigenvalues --    0.17363   0.31009   0.37941   0.44199   0.52895
 Alpha virt. eigenvalues --    0.53140   0.83006   0.84224   0.98861   1.01518
 Alpha virt. eigenvalues --    1.01768   1.42054   1.57951   1.73208   2.00267

 Mulliken charges:
               1
     1  S   -0.108066
     2  H    0.054033
     3  H    0.054033
 Sum of Mulliken charges =   0.00000

 Dipole moment (field-independent basis, Debye):
    X=              0.0000    Y=              0.0000    Z=             -1.5878  Tot=              1.5878
 Quadrupole moment (field-independent basis, Debye-Ang):
   XX=            -15.8836   YY=            -10.7073   ZZ=            -15.1414
   XY=              0.0000   XZ=              0.0000   YZ=              0.0000

 Normal termination of Gaussian 09 at Tue Sep 30 07:30:07 2014.
