 Gaussian 09, Revision D.01,
 Gaussian 09:  ES64L-G09RevD.01 24-Apr-2013

 -----------------
 #RHF 6-31G(d',p')
 -----------------

 -------------------
 H2S.r1.25theta151.0
 -------------------
 Symbolic Z-matrix:
 Charge =  0 Multiplicity = 1

                         Standard orientation:
 ---------------------------------------------------------------------
 Center     Atomic      Atomic             Coordinates (Angstroms)
 Number     Number       Type             X           Y           Z
 ---------------------------------------------------------------------
      1         16           0        0.000000    0.000000    0.034775
      2          1           0        0.000000    1.210185   -0.278200
      3          1           0        0.000000   -1.210185   -0.278200
 ---------------------------------------------------------------------

 SCF Done:  E(RHF) =  -398.586188308     A.U. after   10 cycles

 The electronic state is 1-A1.
 Alpha  occ. eigenvalues --  -91.93319  -8.95251  -6.63790  -6.63460  -6.63367
 Alpha  occ. eigenvalues --   -1.00063  -0.69520  -0.40205  -0.38057
 Alpha virt. eigenvalues --    0.09857   0.32146   0.41050   0.45136   0.53679
 Alpha virt. eigenvalues --    0.53953   0.82621   0.85775   0.98595   1.03043
 Alpha virt. eigenvalues --    1.03223   1.23156   1.44994   1.62036   1.74975

 Mulliken charges:
               1
     1  S   -0.243214
     2  H    0.121607
     3  H    0.121607
 Sum of Mulliken charges =   0.00000

 Dipole moment (field-independent basis, Debye):
    X=              0.0000    Y=              0.0000    Z=             -1.5016  Tot=              1.5016
 Quadrupole moment (field-independent basis, Debye-Ang):
   XX=            -16.5771   YY=             -9.8140   ZZ=            -15.8387
   XY=              0.0000   XZ=              0.0000   YZ=              0.0000

 Normal termination of Gaussian 09 at Tue Sep 30 07:34:21 2014.
