 Gaussian 09, Revision D.01,
 Gaussian 09:  ES64L-G09RevD.01 24-Apr-2013

 -----------------
 #RHF 6-31G(d',p')
 -----------------

 -------------------
 H2S.r1.05theta105.0
 -------------------
 Symbolic Z-matrix:
 Charge =  0 Multiplicity = 1

                         Standard orientation:
 ---------------------------------------------------------------------
 Center     Atomic      Atomic             Coordinates (Angstroms)
 Number     Number       Type             X           Y           Z
 ---------------------------------------------------------------------
      1         16           0        0.000000    0.000000    0.071022
      2          1           0        0.000000    0.833021   -0.568177
      3          1           0        0.000000   -0.833021   -0.568177
 ---------------------------------------------------------------------

 SCF Done:  E(RHF) =  -398.529182024     A.U. after    9 cycles

 The electronic state is 1-A1.
 Alpha  occ. eigenvalues --  -91.90439  -8.94273  -6.62787  -6.62390  -6.61906
 Alpha  occ. eigenvalues --   -1.07933  -0.71455  -0.49082  -0.38761
 Alpha virt. eigenvalues --    0.23266   0.28779   0.38088   0.45491   0.52397
 Alpha virt. eigenvalues --    0.53157   0.86610   0.89468   0.90019   0.96325
 Alpha virt. eigenvalues --    1.02990   1.53899   1.68894   1.77872   1.88603

 Mulliken charges:
               1
     1  S   -0.007894
     2  H    0.003947
     3  H    0.003947
 Sum of Mulliken charges =   0.00000

 Dipole moment (field-independent basis, Debye):
    X=              0.0000    Y=              0.0000    Z=             -1.5059  Tot=              1.5059
 Quadrupole moment (field-independent basis, Debye-Ang):
   XX=            -15.8854   YY=            -11.6749   ZZ=            -13.8720
   XY=              0.0000   XZ=              0.0000   YZ=              0.0000

 Normal termination of Gaussian 09 at Tue Sep 30 07:29:40 2014.
