 Gaussian 09, Revision D.01,
 Gaussian 09:  ES64L-G09RevD.01 24-Apr-2013

 -----------------
 #RHF 6-31G(d',p')
 -----------------

 -------------------
 H2S.r1.70theta149.0
 -------------------
 Symbolic Z-matrix:
 Charge =  0 Multiplicity = 1

                         Standard orientation:
 ---------------------------------------------------------------------
 Center     Atomic      Atomic             Coordinates (Angstroms)
 Number     Number       Type             X           Y           Z
 ---------------------------------------------------------------------
      1         16           0        0.000000    0.000000    0.050478
      2          1           0        0.000000    1.638172   -0.403827
      3          1           0        0.000000   -1.638172   -0.403827
 ---------------------------------------------------------------------

 SCF Done:  E(RHF) =  -398.521884288     A.U. after   11 cycles

 The electronic state is 1-A1.
 Alpha  occ. eigenvalues --  -91.98229  -8.98462  -6.66680  -6.66578  -6.66358
 Alpha  occ. eigenvalues --   -0.90871  -0.54432  -0.38973  -0.37781
 Alpha virt. eigenvalues --   -0.01308   0.16682   0.47545   0.53670   0.53698
 Alpha virt. eigenvalues --    0.57376   0.87060   0.96835   0.96851   1.03741
 Alpha virt. eigenvalues --    1.03970   1.05185   1.12546   1.55352   1.56307

 Mulliken charges:
               1
     1  S   -0.245090
     2  H    0.122545
     3  H    0.122545
 Sum of Mulliken charges =   0.00000

 Dipole moment (field-independent basis, Debye):
    X=              0.0000    Y=              0.0000    Z=             -1.1420  Tot=              1.1420
 Quadrupole moment (field-independent basis, Debye-Ang):
   XX=            -17.6591   YY=             -9.1781   ZZ=            -16.1073
   XY=              0.0000   XZ=              0.0000   YZ=              0.0000

 Normal termination of Gaussian 09 at Tue Sep 30 07:43:42 2014.
