 Gaussian 09, Revision D.01,
 Gaussian 09:  ES64L-G09RevD.01 24-Apr-2013

 -----------------
 #RHF 6-31G(d',p')
 -----------------

 -------------------
 H2S.r1.10theta102.0
 -------------------
 Symbolic Z-matrix:
 Charge =  0 Multiplicity = 1

                         Standard orientation:
 ---------------------------------------------------------------------
 Center     Atomic      Atomic             Coordinates (Angstroms)
 Number     Number       Type             X           Y           Z
 ---------------------------------------------------------------------
      1         16           0        0.000000    0.000000    0.076917
      2          1           0        0.000000    0.854861   -0.615335
      3          1           0        0.000000   -0.854861   -0.615335
 ---------------------------------------------------------------------

 SCF Done:  E(RHF) =  -398.586680009     A.U. after    9 cycles

 The electronic state is 1-A1.
 Alpha  occ. eigenvalues --  -91.91389  -8.94538  -6.62978  -6.62696  -6.62282
 Alpha  occ. eigenvalues --   -1.06007  -0.68968  -0.49459  -0.38628
 Alpha virt. eigenvalues --    0.22383   0.28067   0.39474   0.45830   0.52334
 Alpha virt. eigenvalues --    0.53302   0.85958   0.89671   0.90113   0.95863
 Alpha virt. eigenvalues --    1.03141   1.48882   1.66605   1.74104   1.84487

 Mulliken charges:
               1
     1  S   -0.026565
     2  H    0.013283
     3  H    0.013283
 Sum of Mulliken charges =   0.00000

 Dipole moment (field-independent basis, Debye):
    X=              0.0000    Y=              0.0000    Z=             -1.4684  Tot=              1.4684
 Quadrupole moment (field-independent basis, Debye-Ang):
   XX=            -16.0279   YY=            -11.7825   ZZ=            -13.8441
   XY=              0.0000   XZ=              0.0000   YZ=              0.0000

 Normal termination of Gaussian 09 at Tue Sep 30 07:30:40 2014.
