 Gaussian 09, Revision D.01,
 Gaussian 09:  ES64L-G09RevD.01 24-Apr-2013

 -----------------
 #RHF 6-31G(d',p')
 -----------------

 -------------------
 H2S.r1.05theta156.0
 -------------------
 Symbolic Z-matrix:
 Charge =  0 Multiplicity = 1

                         Standard orientation:
 ---------------------------------------------------------------------
 Center     Atomic      Atomic             Coordinates (Angstroms)
 Number     Number       Type             X           Y           Z
 ---------------------------------------------------------------------
      1         16           0        0.000000    0.000000    0.024256
      2          1           0        0.000000    1.027055   -0.194051
      3          1           0        0.000000   -1.027055   -0.194051
 ---------------------------------------------------------------------

 SCF Done:  E(RHF) =  -398.444806059     A.U. after   10 cycles

 The electronic state is 1-A1.
 Alpha  occ. eigenvalues --  -91.90620  -8.94765  -6.63685  -6.62697  -6.62620
 Alpha  occ. eigenvalues --   -1.07275  -0.78101  -0.40463  -0.38982
 Alpha virt. eigenvalues --    0.14904   0.34702   0.38057   0.45181   0.52819
 Alpha virt. eigenvalues --    0.53078   0.80256   0.83373   0.96625   1.02669
 Alpha virt. eigenvalues --    1.02735   1.42426   1.60140   1.68888   1.90425

 Mulliken charges:
               1
     1  S   -0.165540
     2  H    0.082770
     3  H    0.082770
 Sum of Mulliken charges =   0.00000

 Dipole moment (field-independent basis, Debye):
    X=              0.0000    Y=              0.0000    Z=             -1.3287  Tot=              1.3287
 Quadrupole moment (field-independent basis, Debye-Ang):
   XX=            -15.8865   YY=            -10.4653   ZZ=            -15.4760
   XY=              0.0000   XZ=              0.0000   YZ=              0.0000

 Normal termination of Gaussian 09 at Tue Sep 30 07:30:14 2014.
