 Gaussian 09, Revision D.01,
 Gaussian 09:  ES64L-G09RevD.01 24-Apr-2013

 -----------------
 #RHF 6-31G(d',p')
 -----------------

 ------------------
 H2S.r1.05theta78.0
 ------------------
 Symbolic Z-matrix:
 Charge =  0 Multiplicity = 1

                         Standard orientation:
 ---------------------------------------------------------------------
 Center     Atomic      Atomic             Coordinates (Angstroms)
 Number     Number       Type             X           Y           Z
 ---------------------------------------------------------------------
      1         16           0        0.000000    0.000000    0.090667
      2          1           0        0.000000    0.660786   -0.725336
      3          1           0        0.000000   -0.660786   -0.725336
 ---------------------------------------------------------------------

 SCF Done:  E(RHF) =  -398.517153561     A.U. after    9 cycles

 The electronic state is 1-A1.
 Alpha  occ. eigenvalues --  -91.90559  -8.94312  -6.62673  -6.62549  -6.61888
 Alpha  occ. eigenvalues --   -1.09788  -0.63368  -0.54324  -0.38816
 Alpha virt. eigenvalues --    0.20969   0.30803   0.37424   0.47557   0.51805
 Alpha virt. eigenvalues --    0.53157   0.83708   0.86337   0.91553   0.94559
 Alpha virt. eigenvalues --    1.07303   1.54175   1.63630   1.85506   1.88741

 Mulliken charges:
               1
     1  S    0.011877
     2  H   -0.005939
     3  H   -0.005939
 Sum of Mulliken charges =   0.00000

 Dipole moment (field-independent basis, Debye):
    X=              0.0000    Y=              0.0000    Z=             -1.2374  Tot=              1.2374
 Quadrupole moment (field-independent basis, Debye-Ang):
   XX=            -15.9197   YY=            -12.5411   ZZ=            -12.9524
   XY=              0.0000   XZ=              0.0000   YZ=              0.0000

 Normal termination of Gaussian 09 at Tue Sep 30 07:29:22 2014.
