 Gaussian 09, Revision D.01,
 Gaussian 09:  ES64L-G09RevD.01 24-Apr-2013

 -----------------
 #RHF 6-31G(d',p')
 -----------------

 ------------------
 H2S.r1.35theta93.0
 ------------------
 Symbolic Z-matrix:
 Charge =  0 Multiplicity = 1

                         Standard orientation:
 ---------------------------------------------------------------------
 Center     Atomic      Atomic             Coordinates (Angstroms)
 Number     Number       Type             X           Y           Z
 ---------------------------------------------------------------------
      1         16           0        0.000000    0.000000    0.103253
      2          1           0        0.000000    0.979255   -0.826025
      3          1           0        0.000000   -0.979255   -0.826025
 ---------------------------------------------------------------------

 SCF Done:  E(RHF) =  -398.675598899     A.U. after   10 cycles

 The electronic state is 1-A1.
 Alpha  occ. eigenvalues --  -91.95830  -8.96865  -6.65146  -6.65034  -6.64805
 Alpha  occ. eigenvalues --   -0.98001  -0.58891  -0.49749  -0.38393
 Alpha virt. eigenvalues --    0.16795   0.20660   0.48170   0.48505   0.51248
 Alpha virt. eigenvalues --    0.53533   0.87003   0.89679   0.93731   0.95760
 Alpha virt. eigenvalues --    0.99095   1.27797   1.42581   1.63981   1.68558

 Mulliken charges:
               1
     1  S   -0.061338
     2  H    0.030669
     3  H    0.030669
 Sum of Mulliken charges =   0.00000

 Dipole moment (field-independent basis, Debye):
    X=              0.0000    Y=              0.0000    Z=             -1.3211  Tot=              1.3211
 Quadrupole moment (field-independent basis, Debye-Ang):
   XX=            -16.7025   YY=            -12.3197   ZZ=            -13.7478
   XY=              0.0000   XZ=              0.0000   YZ=              0.0000

 Normal termination of Gaussian 09 at Tue Sep 30 07:35:46 2014.
