 Gaussian 09, Revision D.01,
 Gaussian 09:  ES64L-G09RevD.01 24-Apr-2013

 -----------------
 #RHF 6-31G(d',p')
 -----------------

 -------------------
 H2S.r1.40theta134.0
 -------------------
 Symbolic Z-matrix:
 Charge =  0 Multiplicity = 1

                         Standard orientation:
 ---------------------------------------------------------------------
 Center     Atomic      Atomic             Coordinates (Angstroms)
 Number     Number       Type             X           Y           Z
 ---------------------------------------------------------------------
      1         16           0        0.000000    0.000000    0.060780
      2          1           0        0.000000    1.288707   -0.486243
      3          1           0        0.000000   -1.288707   -0.486243
 ---------------------------------------------------------------------

 SCF Done:  E(RHF) =  -398.627224915     A.U. after   10 cycles

 The electronic state is 1-A1.
 Alpha  occ. eigenvalues --  -91.95752  -8.96685  -6.65024  -6.64870  -6.64706
 Alpha  occ. eigenvalues --   -0.96179  -0.62891  -0.42527  -0.38001
 Alpha virt. eigenvalues --    0.09721   0.23001   0.44239   0.47677   0.53472
 Alpha virt. eigenvalues --    0.53752   0.86877   0.90000   0.97199   1.00691
 Alpha virt. eigenvalues --    1.01720   1.22010   1.28905   1.62876   1.65806

 Mulliken charges:
               1
     1  S   -0.164960
     2  H    0.082480
     3  H    0.082480
 Sum of Mulliken charges =   0.00000

 Dipole moment (field-independent basis, Debye):
    X=              0.0000    Y=              0.0000    Z=             -1.5164  Tot=              1.5164
 Quadrupole moment (field-independent basis, Debye-Ang):
   XX=            -16.9252   YY=            -10.3579   ZZ=            -15.3901
   XY=              0.0000   XZ=              0.0000   YZ=              0.0000

 Normal termination of Gaussian 09 at Tue Sep 30 07:37:16 2014.
