 Gaussian 09, Revision D.01,
 Gaussian 09:  ES64L-G09RevD.01 24-Apr-2013

 -----------------
 #RHF 6-31G(d',p')
 -----------------

 -------------------
 H2S.r1.65theta111.0
 -------------------
 Symbolic Z-matrix:
 Charge =  0 Multiplicity = 1

                         Standard orientation:
 ---------------------------------------------------------------------
 Center     Atomic      Atomic             Coordinates (Angstroms)
 Number     Number       Type             X           Y           Z
 ---------------------------------------------------------------------
      1         16           0        0.000000    0.000000    0.103841
      2          1           0        0.000000    1.359808   -0.830729
      3          1           0        0.000000   -1.359808   -0.830729
 ---------------------------------------------------------------------

 SCF Done:  E(RHF) =  -398.599238394     A.U. after   10 cycles

 The electronic state is 1-A1.
 Alpha  occ. eigenvalues --  -91.99103  -8.99255  -6.67458  -6.67368  -6.67139
 Alpha  occ. eigenvalues --   -0.92099  -0.53425  -0.44718  -0.38387
 Alpha virt. eigenvalues --    0.08128   0.12189   0.49927   0.51006   0.53284
 Alpha virt. eigenvalues --    0.53344   0.92129   0.92660   0.97261   0.98121
 Alpha virt. eigenvalues --    1.00899   1.11821   1.17401   1.54430   1.58743

 Mulliken charges:
               1
     1  S   -0.123862
     2  H    0.061931
     3  H    0.061931
 Sum of Mulliken charges =   0.00000

 Dipole moment (field-independent basis, Debye):
    X=              0.0000    Y=              0.0000    Z=             -1.2168  Tot=              1.2168
 Quadrupole moment (field-independent basis, Debye-Ang):
   XX=            -17.4037   YY=            -11.4226   ZZ=            -14.6026
   XY=              0.0000   XZ=              0.0000   YZ=              0.0000

 Normal termination of Gaussian 09 at Tue Sep 30 07:42:14 2014.
