 Gaussian 09, Revision D.01,
 Gaussian 09:  ES64L-G09RevD.01 24-Apr-2013

 -----------------
 #RHF 6-31G(d',p')
 -----------------

 -------------------
 H2S.r1.55theta120.0
 -------------------
 Symbolic Z-matrix:
 Charge =  0 Multiplicity = 1

                         Standard orientation:
 ---------------------------------------------------------------------
 Center     Atomic      Atomic             Coordinates (Angstroms)
 Number     Number       Type             X           Y           Z
 ---------------------------------------------------------------------
      1         16           0        0.000000    0.000000    0.086111
      2          1           0        0.000000    1.342339   -0.688889
      3          1           0        0.000000   -1.342339   -0.688889
 ---------------------------------------------------------------------

 SCF Done:  E(RHF) =  -398.619660791     A.U. after   10 cycles

 The electronic state is 1-A1.
 Alpha  occ. eigenvalues --  -91.97892  -8.98269  -6.66510  -6.66410  -6.66204
 Alpha  occ. eigenvalues --   -0.93412  -0.56974  -0.44105  -0.38190
 Alpha virt. eigenvalues --    0.08964   0.16174   0.48271   0.49751   0.52527
 Alpha virt. eigenvalues --    0.53517   0.90213   0.93742   0.94555   0.98776
 Alpha virt. eigenvalues --    1.00973   1.17271   1.21061   1.56445   1.62172

 Mulliken charges:
               1
     1  S   -0.129782
     2  H    0.064891
     3  H    0.064891
 Sum of Mulliken charges =   0.00000

 Dipole moment (field-independent basis, Debye):
    X=              0.0000    Y=              0.0000    Z=             -1.3272  Tot=              1.3272
 Quadrupole moment (field-independent basis, Debye-Ang):
   XX=            -17.2218   YY=            -10.9718   ZZ=            -14.9541
   XY=              0.0000   XZ=              0.0000   YZ=              0.0000

 Normal termination of Gaussian 09 at Tue Sep 30 07:40:15 2014.
