 Gaussian 09, Revision D.01,
 Gaussian 09:  ES64L-G09RevD.01 24-Apr-2013

 -----------------
 #RHF 6-31G(d',p')
 -----------------

 -------------------
 H2S.r0.65theta102.0
 -------------------
 Symbolic Z-matrix:
 Charge =  0 Multiplicity = 1

                         Standard orientation:
 ---------------------------------------------------------------------
 Center     Atomic      Atomic             Coordinates (Angstroms)
 Number     Number       Type             X           Y           Z
 ---------------------------------------------------------------------
      1         16           0        0.000000    0.000000    0.045451
      2          1           0        0.000000    0.505145   -0.363607
      3          1           0        0.000000   -0.505145   -0.363607
 ---------------------------------------------------------------------

 SCF Done:  E(RHF) =  -396.538946192     A.U. after   10 cycles

 The electronic state is 1-A1.
 Alpha  occ. eigenvalues --  -91.88285  -9.04256  -6.74218  -6.71443  -6.67400
 Alpha  occ. eigenvalues --   -1.23921  -0.80574  -0.50979  -0.40908
 Alpha virt. eigenvalues --    0.21136   0.23154   0.49167   0.50872   0.51791
 Alpha virt. eigenvalues --    0.60437   0.86641   0.89120   0.91522   0.96277
 Alpha virt. eigenvalues --    1.01418   2.00419   2.03873   2.14908   2.28729

 Mulliken charges:
               1
     1  S    0.604926
     2  H   -0.302463
     3  H   -0.302463
 Sum of Mulliken charges =   0.00000

 Dipole moment (field-independent basis, Debye):
    X=              0.0000    Y=              0.0000    Z=             -1.2878  Tot=              1.2878
 Quadrupole moment (field-independent basis, Debye-Ang):
   XX=            -14.7132   YY=            -11.7256   ZZ=            -13.2048
   XY=              0.0000   XZ=              0.0000   YZ=              0.0000

 Normal termination of Gaussian 09 at Tue Sep 30 07:21:27 2014.
