 Gaussian 09, Revision D.01,
 Gaussian 09:  ES64L-G09RevD.01 24-Apr-2013

 -----------------
 #RHF 6-31G(d',p')
 -----------------

 ------------------
 H2S.r1.50theta80.0
 ------------------
 Symbolic Z-matrix:
 Charge =  0 Multiplicity = 1

                         Standard orientation:
 ---------------------------------------------------------------------
 Center     Atomic      Atomic             Coordinates (Angstroms)
 Number     Number       Type             X           Y           Z
 ---------------------------------------------------------------------
      1         16           0        0.000000    0.000000    0.127674
      2          1           0        0.000000    0.964181   -1.021393
      3          1           0        0.000000   -0.964181   -1.021393
 ---------------------------------------------------------------------

 SCF Done:  E(RHF) =  -398.647503218     A.U. after   10 cycles

 The electronic state is 1-A1.
 Alpha  occ. eigenvalues --  -91.97956  -8.98408  -6.66621  -6.66550  -6.66311
 Alpha  occ. eigenvalues --   -0.94905  -0.52358  -0.50584  -0.38531
 Alpha virt. eigenvalues --    0.12037   0.16299   0.49724   0.50261   0.52954
 Alpha virt. eigenvalues --    0.53345   0.89439   0.89912   0.96004   0.96155
 Alpha virt. eigenvalues --    0.97519   1.20176   1.25127   1.61284   1.65762

 Mulliken charges:
               1
     1  S   -0.073600
     2  H    0.036800
     3  H    0.036800
 Sum of Mulliken charges =   0.00000

 Dipole moment (field-independent basis, Debye):
    X=              0.0000    Y=              0.0000    Z=             -1.2274  Tot=              1.2274
 Quadrupole moment (field-independent basis, Debye-Ang):
   XX=            -17.0663   YY=            -13.1548   ZZ=            -13.1810
   XY=              0.0000   XZ=              0.0000   YZ=              0.0000

 Normal termination of Gaussian 09 at Tue Sep 30 07:38:44 2014.
