 Gaussian 09, Revision D.01,
 Gaussian 09:  ES64L-G09RevD.01 24-Apr-2013

 -----------------
 #RHF 6-31G(d',p')
 -----------------

 -------------------
 H2S.r1.75theta160.0
 -------------------
 Symbolic Z-matrix:
 Charge =  0 Multiplicity = 1

                         Standard orientation:
 ---------------------------------------------------------------------
 Center     Atomic      Atomic             Coordinates (Angstroms)
 Number     Number       Type             X           Y           Z
 ---------------------------------------------------------------------
      1         16           0        0.000000    0.000000    0.033765
      2          1           0        0.000000    1.723414   -0.270119
      3          1           0        0.000000   -1.723414   -0.270119
 ---------------------------------------------------------------------

 SCF Done:  E(RHF) =  -398.481412109     A.U. after   11 cycles

 The electronic state is 1-A1.
 Alpha  occ. eigenvalues --  -91.97906  -8.98133  -6.66362  -6.66238  -6.66028
 Alpha  occ. eigenvalues --   -0.89954  -0.53233  -0.37414  -0.37164
 Alpha virt. eigenvalues --   -0.04425   0.16268   0.47793   0.53895   0.54143
 Alpha virt. eigenvalues --    0.62068   0.86810   0.97297   0.97984   1.01686
 Alpha virt. eigenvalues --    1.04701   1.04778   1.10252   1.53839   1.54155

 Mulliken charges:
               1
     1  S   -0.317586
     2  H    0.158793
     3  H    0.158793
 Sum of Mulliken charges =   0.00000

 Dipole moment (field-independent basis, Debye):
    X=              0.0000    Y=              0.0000    Z=             -0.9823  Tot=              0.9823
 Quadrupole moment (field-independent basis, Debye-Ang):
   XX=            -17.8360   YY=             -8.2548   ZZ=            -16.5035
   XY=              0.0000   XZ=              0.0000   YZ=              0.0000

 Normal termination of Gaussian 09 at Tue Sep 30 07:44:54 2014.
