 Gaussian 09, Revision D.01,
 Gaussian 09:  ES64L-G09RevD.01 24-Apr-2013

 -----------------
 #RHF 6-31G(d',p')
 -----------------

 -------------------
 H2S.r0.85theta158.0
 -------------------
 Symbolic Z-matrix:
 Charge =  0 Multiplicity = 1

                         Standard orientation:
 ---------------------------------------------------------------------
 Center     Atomic      Atomic             Coordinates (Angstroms)
 Number     Number       Type             X           Y           Z
 ---------------------------------------------------------------------
      1         16           0        0.000000    0.000000    0.018021
      2          1           0        0.000000    0.834383   -0.144167
      3          1           0        0.000000   -0.834383   -0.144167
 ---------------------------------------------------------------------

 SCF Done:  E(RHF) =  -397.943356468     A.U. after   10 cycles

 The electronic state is 1-A1.
 Alpha  occ. eigenvalues --  -91.87883  -8.96259  -6.66265  -6.63155  -6.63021
 Alpha  occ. eigenvalues --   -1.15552  -0.86216  -0.41335  -0.40165
 Alpha virt. eigenvalues --    0.17932   0.28809   0.39180   0.51693   0.51887
 Alpha virt. eigenvalues --    0.53922   0.80299   0.83175   0.95852   1.01710
 Alpha virt. eigenvalues --    1.01738   1.64351   1.75867   1.81808   2.11131

 Mulliken charges:
               1
     1  S    0.136440
     2  H   -0.068220
     3  H   -0.068220
 Sum of Mulliken charges =   0.00000

 Dipole moment (field-independent basis, Debye):
    X=              0.0000    Y=              0.0000    Z=             -1.1701  Tot=              1.1701
 Quadrupole moment (field-independent basis, Debye-Ang):
   XX=            -15.1646   YY=            -11.1522   ZZ=            -14.8823
   XY=              0.0000   XZ=              0.0000   YZ=              0.0000

 Normal termination of Gaussian 09 at Tue Sep 30 07:26:10 2014.
