 Gaussian 09, Revision D.01,
 Gaussian 09:  ES64L-G09RevD.01 24-Apr-2013

 -----------------
 #RHF 6-31G(d',p')
 -----------------

 ------------------
 H2S.r0.80theta99.0
 ------------------
 Symbolic Z-matrix:
 Charge =  0 Multiplicity = 1

                         Standard orientation:
 ---------------------------------------------------------------------
 Center     Atomic      Atomic             Coordinates (Angstroms)
 Number     Number       Type             X           Y           Z
 ---------------------------------------------------------------------
      1         16           0        0.000000    0.000000    0.057729
      2          1           0        0.000000    0.608325   -0.461830
      3          1           0        0.000000   -0.608325   -0.461830
 ---------------------------------------------------------------------

 SCF Done:  E(RHF) =  -397.781488598     A.U. after   10 cycles

 The electronic state is 1-A1.
 Alpha  occ. eigenvalues --  -91.86455  -8.95913  -6.64782  -6.63873  -6.61966
 Alpha  occ. eigenvalues --   -1.19343  -0.77680  -0.51043  -0.39778
 Alpha virt. eigenvalues --    0.23471   0.25565   0.45309   0.47627   0.52091
 Alpha virt. eigenvalues --    0.52396   0.85001   0.89280   0.91171   0.95780
 Alpha virt. eigenvalues --    1.06142   1.80799   1.87287   2.03810   2.10252

 Mulliken charges:
               1
     1  S    0.289882
     2  H   -0.144941
     3  H   -0.144941
 Sum of Mulliken charges =   0.00000

 Dipole moment (field-independent basis, Debye):
    X=              0.0000    Y=              0.0000    Z=             -1.3898  Tot=              1.3898
 Quadrupole moment (field-independent basis, Debye-Ang):
   XX=            -15.1909   YY=            -11.7434   ZZ=            -13.3274
   XY=              0.0000   XZ=              0.0000   YZ=              0.0000

 Normal termination of Gaussian 09 at Tue Sep 30 07:24:29 2014.
