 Gaussian 09, Revision D.01,
 Gaussian 09:  ES64L-G09RevD.01 24-Apr-2013

 -----------------
 #RHF 6-31G(d',p')
 -----------------

 -------------------
 H2S.r1.15theta101.0
 -------------------
 Symbolic Z-matrix:
 Charge =  0 Multiplicity = 1

                         Standard orientation:
 ---------------------------------------------------------------------
 Center     Atomic      Atomic             Coordinates (Angstroms)
 Number     Number       Type             X           Y           Z
 ---------------------------------------------------------------------
      1         16           0        0.000000    0.000000    0.081277
      2          1           0        0.000000    0.887368   -0.650213
      3          1           0        0.000000   -0.887368   -0.650213
 ---------------------------------------------------------------------

 SCF Done:  E(RHF) =  -398.626107949     A.U. after    9 cycles

 The electronic state is 1-A1.
 Alpha  occ. eigenvalues --  -91.92335  -8.94907  -6.63305  -6.63080  -6.62734
 Alpha  occ. eigenvalues --   -1.04128  -0.66992  -0.49439  -0.38528
 Alpha virt. eigenvalues --    0.21592   0.26593   0.41150   0.46134   0.52239
 Alpha virt. eigenvalues --    0.53410   0.86060   0.89797   0.90512   0.95784
 Alpha virt. eigenvalues --    1.02447   1.44123   1.63502   1.69538   1.81130

 Mulliken charges:
               1
     1  S   -0.040301
     2  H    0.020150
     3  H    0.020150
 Sum of Mulliken charges =   0.00000

 Dipole moment (field-independent basis, Debye):
    X=              0.0000    Y=              0.0000    Z=             -1.4489  Tot=              1.4489
 Quadrupole moment (field-independent basis, Debye-Ang):
   XX=            -16.1680   YY=            -11.8424   ZZ=            -13.8748
   XY=              0.0000   XZ=              0.0000   YZ=              0.0000

 Normal termination of Gaussian 09 at Tue Sep 30 07:31:42 2014.
