 Gaussian 09, Revision D.01,
 Gaussian 09:  ES64L-G09RevD.01 24-Apr-2013

 -----------------
 #RHF 6-31G(d',p')
 -----------------

 ------------------
 H2S.r1.60theta79.0
 ------------------
 Symbolic Z-matrix:
 Charge =  0 Multiplicity = 1

                         Standard orientation:
 ---------------------------------------------------------------------
 Center     Atomic      Atomic             Coordinates (Angstroms)
 Number     Number       Type             X           Y           Z
 ---------------------------------------------------------------------
      1         16           0        0.000000    0.000000    0.137178
      2          1           0        0.000000    1.017725   -1.097422
      3          1           0        0.000000   -1.017725   -1.097422
 ---------------------------------------------------------------------

 SCF Done:  E(RHF) =  -398.619449487     A.U. after   10 cycles

 The electronic state is 1-A1.
 Alpha  occ. eigenvalues --  -91.99044  -8.99261  -6.67448  -6.67384  -6.67133
 Alpha  occ. eigenvalues --   -0.93207  -0.50030  -0.49632  -0.38614
 Alpha virt. eigenvalues --    0.09635   0.13224   0.49126   0.51173   0.53188
 Alpha virt. eigenvalues --    0.55507   0.90110   0.92718   0.94687   0.97536
 Alpha virt. eigenvalues --    0.98891   1.15288   1.18384   1.58104   1.61444

 Mulliken charges:
               1
     1  S   -0.092447
     2  H    0.046223
     3  H    0.046223
 Sum of Mulliken charges =   0.00000

 Dipole moment (field-independent basis, Debye):
    X=              0.0000    Y=              0.0000    Z=             -1.2131  Tot=              1.2131
 Quadrupole moment (field-independent basis, Debye-Ang):
   XX=            -17.2858   YY=            -13.3185   ZZ=            -13.0732
   XY=              0.0000   XZ=              0.0000   YZ=              0.0000

 Normal termination of Gaussian 09 at Tue Sep 30 07:40:49 2014.
