 Gaussian 09, Revision D.01,
 Gaussian 09:  ES64L-G09RevD.01 24-Apr-2013

 -----------------
 #RHF 6-31G(d',p')
 -----------------

 ------------------
 H2S.r0.60theta72.0
 ------------------
 Symbolic Z-matrix:
 Charge =  0 Multiplicity = 1

                         Standard orientation:
 ---------------------------------------------------------------------
 Center     Atomic      Atomic             Coordinates (Angstroms)
 Number     Number       Type             X           Y           Z
 ---------------------------------------------------------------------
      1         16           0        0.000000    0.000000    0.053934
      2          1           0        0.000000    0.352671   -0.431476
      3          1           0        0.000000   -0.352671   -0.431476
 ---------------------------------------------------------------------

 SCF Done:  E(RHF) =  -395.804627576     A.U. after   10 cycles

 The electronic state is 1-A1.
 Alpha  occ. eigenvalues --  -91.91908  -9.10925  -6.80783  -6.77282  -6.71851
 Alpha  occ. eigenvalues --   -1.31456  -0.67721  -0.57157  -0.41652
 Alpha virt. eigenvalues --    0.19928   0.23446   0.47356   0.50099   0.53697
 Alpha virt. eigenvalues --    0.65988   0.87006   0.88344   0.92222   0.95682
 Alpha virt. eigenvalues --    0.98643   2.06647   2.09760   2.20467   2.26078

 Mulliken charges:
               1
     1  S    0.630599
     2  H   -0.315300
     3  H   -0.315300
 Sum of Mulliken charges =   0.00000

 Dipole moment (field-independent basis, Debye):
    X=              0.0000    Y=              0.0000    Z=             -0.9674  Tot=              0.9674
 Quadrupole moment (field-independent basis, Debye-Ang):
   XX=            -14.6308   YY=            -12.2451   ZZ=            -12.4782
   XY=              0.0000   XZ=              0.0000   YZ=              0.0000

 Normal termination of Gaussian 09 at Tue Sep 30 07:20:06 2014.
