 Gaussian 09, Revision D.01,
 Gaussian 09:  ES64L-G09RevD.01 24-Apr-2013

 -----------------
 #RHF 6-31G(d',p')
 -----------------

 -------------------
 H2S.r0.80theta154.0
 -------------------
 Symbolic Z-matrix:
 Charge =  0 Multiplicity = 1

                         Standard orientation:
 ---------------------------------------------------------------------
 Center     Atomic      Atomic             Coordinates (Angstroms)
 Number     Number       Type             X           Y           Z
 ---------------------------------------------------------------------
      1         16           0        0.000000    0.000000    0.019996
      2          1           0        0.000000    0.779496   -0.159965
      3          1           0        0.000000   -0.779496   -0.159965
 ---------------------------------------------------------------------

 SCF Done:  E(RHF) =  -397.712213974     A.U. after   10 cycles

 The electronic state is 1-A1.
 Alpha  occ. eigenvalues --  -91.87382  -8.97290  -6.67784  -6.63747  -6.63511
 Alpha  occ. eigenvalues --   -1.17554  -0.87590  -0.42020  -0.40435
 Alpha virt. eigenvalues --    0.18558   0.27284   0.40790   0.51436   0.51642
 Alpha virt. eigenvalues --    0.54134   0.81353   0.83710   0.96549   1.01230
 Alpha virt. eigenvalues --    1.01270   1.69896   1.80555   1.87453   2.20571

 Mulliken charges:
               1
     1  S    0.267903
     2  H   -0.133951
     3  H   -0.133951
 Sum of Mulliken charges =   0.00000

 Dipole moment (field-independent basis, Debye):
    X=              0.0000    Y=              0.0000    Z=             -1.2804  Tot=              1.2804
 Quadrupole moment (field-independent basis, Debye-Ang):
   XX=            -15.0035   YY=            -11.3021   ZZ=            -14.6426
   XY=              0.0000   XZ=              0.0000   YZ=              0.0000

 Normal termination of Gaussian 09 at Tue Sep 30 07:25:06 2014.
