 Gaussian 09, Revision D.01,
 Gaussian 09:  ES64L-G09RevD.01 24-Apr-2013

 -----------------
 #RHF 6-31G(d',p')
 -----------------

 -------------------
 H2S.r1.20theta158.0
 -------------------
 Symbolic Z-matrix:
 Charge =  0 Multiplicity = 1

                         Standard orientation:
 ---------------------------------------------------------------------
 Center     Atomic      Atomic             Coordinates (Angstroms)
 Number     Number       Type             X           Y           Z
 ---------------------------------------------------------------------
      1         16           0        0.000000    0.000000    0.025441
      2          1           0        0.000000    1.177953   -0.203530
      3          1           0        0.000000   -1.177953   -0.203530
 ---------------------------------------------------------------------

 SCF Done:  E(RHF) =  -398.556864936     A.U. after   10 cycles

 The electronic state is 1-A1.
 Alpha  occ. eigenvalues --  -91.92528  -8.94931  -6.63570  -6.63134  -6.63074
 Alpha  occ. eigenvalues --   -1.01627  -0.71822  -0.39447  -0.38175
 Alpha virt. eigenvalues --    0.09937   0.36613   0.40248   0.44137   0.53539
 Alpha virt. eigenvalues --    0.53806   0.81036   0.84594   0.95593   1.03625
 Alpha virt. eigenvalues --    1.03685   1.27780   1.50971   1.61676   1.74270

 Mulliken charges:
               1
     1  S   -0.278557
     2  H    0.139279
     3  H    0.139279
 Sum of Mulliken charges =   0.00000

 Dipole moment (field-independent basis, Debye):
    X=              0.0000    Y=              0.0000    Z=             -1.3133  Tot=              1.3133
 Quadrupole moment (field-independent basis, Debye-Ang):
   XX=            -16.4364   YY=             -9.7043   ZZ=            -15.9869
   XY=              0.0000   XZ=              0.0000   YZ=              0.0000

 Normal termination of Gaussian 09 at Tue Sep 30 07:33:23 2014.
