 Gaussian 09, Revision D.01,
 Gaussian 09:  ES64L-G09RevD.01 24-Apr-2013

 -----------------
 #RHF 6-31G(d',p')
 -----------------

 ------------------
 H2S.r1.55theta74.0
 ------------------
 Symbolic Z-matrix:
 Charge =  0 Multiplicity = 1

                         Standard orientation:
 ---------------------------------------------------------------------
 Center     Atomic      Atomic             Coordinates (Angstroms)
 Number     Number       Type             X           Y           Z
 ---------------------------------------------------------------------
      1         16           0        0.000000    0.000000    0.137543
      2          1           0        0.000000    0.932813   -1.100342
      3          1           0        0.000000   -0.932813   -1.100342
 ---------------------------------------------------------------------

 SCF Done:  E(RHF) =  -398.629685005     A.U. after   10 cycles

 The electronic state is 1-A1.
 Alpha  occ. eigenvalues --  -91.98524  -8.98857  -6.67043  -6.66996  -6.66737
 Alpha  occ. eigenvalues --   -0.94145  -0.51006  -0.50038  -0.38596
 Alpha virt. eigenvalues --    0.10454   0.14601   0.49098   0.51035   0.53257
 Alpha virt. eigenvalues --    0.53431   0.89758   0.91874   0.95107   0.96134
 Alpha virt. eigenvalues --    0.98828   1.18808   1.19522   1.58588   1.59783

 Mulliken charges:
               1
     1  S   -0.080114
     2  H    0.040057
     3  H    0.040057
 Sum of Mulliken charges =   0.00000

 Dipole moment (field-independent basis, Debye):
    X=              0.0000    Y=              0.0000    Z=             -1.2235  Tot=              1.2235
 Quadrupole moment (field-independent basis, Debye-Ang):
   XX=            -17.1826   YY=            -13.5691   ZZ=            -12.8533
   XY=              0.0000   XZ=              0.0000   YZ=              0.0000

 Normal termination of Gaussian 09 at Tue Sep 30 07:39:43 2014.
