 Gaussian 09, Revision D.01,
 Gaussian 09:  ES64L-G09RevD.01 24-Apr-2013

 -----------------
 #RHF 6-31G(d',p')
 -----------------

 -------------------
 H2S.r0.75theta151.0
 -------------------
 Symbolic Z-matrix:
 Charge =  0 Multiplicity = 1

                         Standard orientation:
 ---------------------------------------------------------------------
 Center     Atomic      Atomic             Coordinates (Angstroms)
 Number     Number       Type             X           Y           Z
 ---------------------------------------------------------------------
      1         16           0        0.000000    0.000000    0.020865
      2          1           0        0.000000    0.726111   -0.166920
      3          1           0        0.000000   -0.726111   -0.166920
 ---------------------------------------------------------------------

 SCF Done:  E(RHF) =  -397.407674524     A.U. after   10 cycles

 The electronic state is 1-A1.
 Alpha  occ. eigenvalues --  -91.87242  -8.98960  -6.70129  -6.64857  -6.64480
 Alpha  occ. eigenvalues --   -1.19380  -0.88633  -0.42645  -0.40733
 Alpha virt. eigenvalues --    0.18732   0.26160   0.43081   0.51143   0.51335
 Alpha virt. eigenvalues --    0.55158   0.81963   0.84307   0.96368   1.00778
 Alpha virt. eigenvalues --    1.00820   1.77020   1.86169   1.93034   2.29111

 Mulliken charges:
               1
     1  S    0.399252
     2  H   -0.199626
     3  H   -0.199626
 Sum of Mulliken charges =   0.00000

 Dipole moment (field-independent basis, Debye):
    X=              0.0000    Y=              0.0000    Z=             -1.3320  Tot=              1.3320
 Quadrupole moment (field-independent basis, Debye-Ang):
   XX=            -14.8447   YY=            -11.4227   ZZ=            -14.4296
   XY=              0.0000   XZ=              0.0000   YZ=              0.0000

 Normal termination of Gaussian 09 at Tue Sep 30 07:24:03 2014.
