 Gaussian 09, Revision D.01,
 Gaussian 09:  ES64L-G09RevD.01 24-Apr-2013

 -----------------
 #RHF 6-31G(d',p')
 -----------------

 ------------------
 H2S.r1.10theta88.0
 ------------------
 Symbolic Z-matrix:
 Charge =  0 Multiplicity = 1

                         Standard orientation:
 ---------------------------------------------------------------------
 Center     Atomic      Atomic             Coordinates (Angstroms)
 Number     Number       Type             X           Y           Z
 ---------------------------------------------------------------------
      1         16           0        0.000000    0.000000    0.087919
      2          1           0        0.000000    0.764124   -0.703354
      3          1           0        0.000000   -0.764124   -0.703354
 ---------------------------------------------------------------------

 SCF Done:  E(RHF) =  -398.584966109     A.U. after    9 cycles

 The electronic state is 1-A1.
 Alpha  occ. eigenvalues --  -91.91458  -8.94564  -6.62897  -6.62809  -6.62280
 Alpha  occ. eigenvalues --   -1.06668  -0.65219  -0.52118  -0.38654
 Alpha virt. eigenvalues --    0.20910   0.29834   0.39616   0.46903   0.52087
 Alpha virt. eigenvalues --    0.53306   0.82641   0.87460   0.92688   0.93475
 Alpha virt. eigenvalues --    1.06398   1.48385   1.62100   1.81858   1.92983

 Mulliken charges:
               1
     1  S   -0.005666
     2  H    0.002833
     3  H    0.002833
 Sum of Mulliken charges =   0.00000

 Dipole moment (field-independent basis, Debye):
    X=              0.0000    Y=              0.0000    Z=             -1.3217  Tot=              1.3217
 Quadrupole moment (field-independent basis, Debye-Ang):
   XX=            -16.0375   YY=            -12.2491   ZZ=            -13.3597
   XY=              0.0000   XZ=              0.0000   YZ=              0.0000

 Normal termination of Gaussian 09 at Tue Sep 30 07:30:30 2014.
