 Gaussian 09, Revision D.01,
 Gaussian 09:  ES64L-G09RevD.01 24-Apr-2013

 -----------------
 #RHF 6-31G(d',p')
 -----------------

 -------------------
 H2S.r1.00theta151.0
 -------------------
 Symbolic Z-matrix:
 Charge =  0 Multiplicity = 1

                         Standard orientation:
 ---------------------------------------------------------------------
 Center     Atomic      Atomic             Coordinates (Angstroms)
 Number     Number       Type             X           Y           Z
 ---------------------------------------------------------------------
      1         16           0        0.000000    0.000000    0.027820
      2          1           0        0.000000    0.968148   -0.222560
      3          1           0        0.000000   -0.968148   -0.222560
 ---------------------------------------------------------------------

 SCF Done:  E(RHF) =  -398.378569569     A.U. after   10 cycles

 The electronic state is 1-A1.
 Alpha  occ. eigenvalues --  -91.89880  -8.94791  -6.63837  -6.62567  -6.62444
 Alpha  occ. eigenvalues --   -1.09344  -0.79957  -0.41338  -0.39239
 Alpha virt. eigenvalues --    0.17136   0.31837   0.37644   0.45784   0.52600
 Alpha virt. eigenvalues --    0.52872   0.81275   0.83548   0.98150   1.01997
 Alpha virt. eigenvalues --    1.02118   1.46361   1.62607   1.73644   2.00215

 Mulliken charges:
               1
     1  S   -0.086262
     2  H    0.043131
     3  H    0.043131
 Sum of Mulliken charges =   0.00000

 Dipole moment (field-independent basis, Debye):
    X=              0.0000    Y=              0.0000    Z=             -1.4575  Tot=              1.4575
 Quadrupole moment (field-independent basis, Debye-Ang):
   XX=            -15.7080   YY=            -10.7458   ZZ=            -15.1814
   XY=              0.0000   XZ=              0.0000   YZ=              0.0000

 Normal termination of Gaussian 09 at Tue Sep 30 07:29:10 2014.
