 Gaussian 09, Revision D.01,
 Gaussian 09:  ES64L-G09RevD.01 24-Apr-2013

 -----------------
 #RHF 6-31G(d',p')
 -----------------

 -------------------
 H2S.r0.95theta120.0
 -------------------
 Symbolic Z-matrix:
 Charge =  0 Multiplicity = 1

                         Standard orientation:
 ---------------------------------------------------------------------
 Center     Atomic      Atomic             Coordinates (Angstroms)
 Number     Number       Type             X           Y           Z
 ---------------------------------------------------------------------
      1         16           0        0.000000    0.000000    0.052778
      2          1           0        0.000000    0.822724   -0.422222
      3          1           0        0.000000   -0.822724   -0.422222
 ---------------------------------------------------------------------

 SCF Done:  E(RHF) =  -398.332121706     A.U. after    9 cycles

 The electronic state is 1-A1.
 Alpha  occ. eigenvalues --  -91.88725  -8.94364  -6.63249  -6.62189  -6.61657
 Alpha  occ. eigenvalues --   -1.11786  -0.78301  -0.46608  -0.39216
 Alpha virt. eigenvalues --    0.25546   0.25735   0.37710   0.45104   0.52391
 Alpha virt. eigenvalues --    0.52681   0.87035   0.89105   0.93431   0.98580
 Alpha virt. eigenvalues --    0.99834   1.64472   1.64555   1.90786   1.94607

 Mulliken charges:
               1
     1  S    0.064239
     2  H   -0.032120
     3  H   -0.032120
 Sum of Mulliken charges =   0.00000

 Dipole moment (field-independent basis, Debye):
    X=              0.0000    Y=              0.0000    Z=             -1.6397  Tot=              1.6397
 Quadrupole moment (field-independent basis, Debye-Ang):
   XX=            -15.5790   YY=            -11.3655   ZZ=            -14.1596
   XY=              0.0000   XZ=              0.0000   YZ=              0.0000

 Normal termination of Gaussian 09 at Tue Sep 30 07:27:47 2014.
