 Gaussian 09, Revision D.01,
 Gaussian 09:  ES64L-G09RevD.01 24-Apr-2013

 -----------------
 #RHF 6-31G(d',p')
 -----------------

 -------------------
 H2S.r1.10theta160.0
 -------------------
 Symbolic Z-matrix:
 Charge =  0 Multiplicity = 1

                         Standard orientation:
 ---------------------------------------------------------------------
 Center     Atomic      Atomic             Coordinates (Angstroms)
 Number     Number       Type             X           Y           Z
 ---------------------------------------------------------------------
      1         16           0        0.000000    0.000000    0.021224
      2          1           0        0.000000    1.083289   -0.169789
      3          1           0        0.000000   -1.083289   -0.169789
 ---------------------------------------------------------------------

 SCF Done:  E(RHF) =  -398.491684302     A.U. after   10 cycles

 The electronic state is 1-A1.
 Alpha  occ. eigenvalues --  -91.91276  -8.94767  -6.63587  -6.62829  -6.62777
 Alpha  occ. eigenvalues --   -1.05277  -0.76112  -0.39747  -0.38698
 Alpha virt. eigenvalues --    0.12742   0.37822   0.38713   0.44215   0.53060
 Alpha virt. eigenvalues --    0.53288   0.79845   0.83441   0.94429   1.03249
 Alpha virt. eigenvalues --    1.03284   1.38623   1.57985   1.65183   1.82296

 Mulliken charges:
               1
     1  S   -0.232580
     2  H    0.116290
     3  H    0.116290
 Sum of Mulliken charges =   0.00000

 Dipole moment (field-independent basis, Debye):
    X=              0.0000    Y=              0.0000    Z=             -1.1989  Tot=              1.1989
 Quadrupole moment (field-independent basis, Debye-Ang):
   XX=            -16.0746   YY=            -10.1446   ZZ=            -15.7509
   XY=              0.0000   XZ=              0.0000   YZ=              0.0000

 Normal termination of Gaussian 09 at Tue Sep 30 07:31:20 2014.
