 Gaussian 09, Revision D.01,
 Gaussian 09:  ES64L-G09RevD.01 24-Apr-2013

 -----------------
 #RHF 6-31G(d',p')
 -----------------

 ------------------
 H2S.r0.95theta96.0
 ------------------
 Symbolic Z-matrix:
 Charge =  0 Multiplicity = 1

                         Standard orientation:
 ---------------------------------------------------------------------
 Center     Atomic      Atomic             Coordinates (Angstroms)
 Number     Number       Type             X           Y           Z
 ---------------------------------------------------------------------
      1         16           0        0.000000    0.000000    0.070630
      2          1           0        0.000000    0.705988   -0.565044
      3          1           0        0.000000   -0.705988   -0.565044
 ---------------------------------------------------------------------

 SCF Done:  E(RHF) =  -398.347322791     A.U. after    9 cycles

 The electronic state is 1-A1.
 Alpha  occ. eigenvalues --  -91.88585  -8.94096  -6.62604  -6.62264  -6.61331
 Alpha  occ. eigenvalues --   -1.12764  -0.72448  -0.51158  -0.39072
 Alpha virt. eigenvalues --    0.23019   0.30679   0.38217   0.46178   0.52380
 Alpha virt. eigenvalues --    0.52834   0.83690   0.88100   0.91153   0.94963
 Alpha virt. eigenvalues --    1.07099   1.62846   1.75539   1.92780   1.96922

 Mulliken charges:
               1
     1  S    0.079231
     2  H   -0.039616
     3  H   -0.039616
 Sum of Mulliken charges =   0.00000

 Dipole moment (field-independent basis, Debye):
    X=              0.0000    Y=              0.0000    Z=             -1.4009  Tot=              1.4009
 Quadrupole moment (field-independent basis, Debye-Ang):
   XX=            -15.6187   YY=            -11.8600   ZZ=            -13.4438
   XY=              0.0000   XZ=              0.0000   YZ=              0.0000

 Normal termination of Gaussian 09 at Tue Sep 30 07:27:31 2014.
