 Gaussian 09, Revision D.01,
 Gaussian 09:  ES64L-G09RevD.01 24-Apr-2013

 -----------------
 #RHF 6-31G(d',p')
 -----------------

 -------------------
 H2S.r1.35theta153.0
 -------------------
 Symbolic Z-matrix:
 Charge =  0 Multiplicity = 1

                         Standard orientation:
 ---------------------------------------------------------------------
 Center     Atomic      Atomic             Coordinates (Angstroms)
 Number     Number       Type             X           Y           Z
 ---------------------------------------------------------------------
      1         16           0        0.000000    0.000000    0.035017
      2          1           0        0.000000    1.312699   -0.280134
      3          1           0        0.000000   -1.312699   -0.280134
 ---------------------------------------------------------------------

 SCF Done:  E(RHF) =  -398.588280440     A.U. after   10 cycles

 The electronic state is 1-A1.
 Alpha  occ. eigenvalues --  -91.94379  -8.95683  -6.64140  -6.63924  -6.63823
 Alpha  occ. eigenvalues --   -0.97079  -0.65721  -0.39492  -0.37680
 Alpha virt. eigenvalues --    0.06257   0.29734   0.42744   0.48280   0.53968
 Alpha virt. eigenvalues --    0.54250   0.82896   0.87571   0.98404   1.03723
 Alpha virt. eigenvalues --    1.03879   1.14999   1.38060   1.58825   1.66282

 Mulliken charges:
               1
     1  S   -0.285209
     2  H    0.142605
     3  H    0.142605
 Sum of Mulliken charges =   0.00000

 Dipole moment (field-independent basis, Debye):
    X=              0.0000    Y=              0.0000    Z=             -1.4546  Tot=              1.4546
 Quadrupole moment (field-independent basis, Debye-Ang):
   XX=            -16.9045   YY=             -9.3209   ZZ=            -16.1073
   XY=              0.0000   XZ=              0.0000   YZ=              0.0000

 Normal termination of Gaussian 09 at Tue Sep 30 07:36:27 2014.
