 Gaussian 09, Revision D.01,
 Gaussian 09:  ES64L-G09RevD.01 24-Apr-2013

 -----------------
 #RHF 6-31G(d',p')
 -----------------

 -------------------
 H2S.r1.55theta110.0
 -------------------
 Symbolic Z-matrix:
 Charge =  0 Multiplicity = 1

                         Standard orientation:
 ---------------------------------------------------------------------
 Center     Atomic      Atomic             Coordinates (Angstroms)
 Number     Number       Type             X           Y           Z
 ---------------------------------------------------------------------
      1         16           0        0.000000    0.000000    0.098783
      2          1           0        0.000000    1.269686   -0.790261
      3          1           0        0.000000   -1.269686   -0.790261
 ---------------------------------------------------------------------

 SCF Done:  E(RHF) =  -398.630901159     A.U. after   10 cycles

 The electronic state is 1-A1.
 Alpha  occ. eigenvalues --  -91.98123  -8.98468  -6.66702  -6.66602  -6.66392
 Alpha  occ. eigenvalues --   -0.93527  -0.55921  -0.45610  -0.38301
 Alpha virt. eigenvalues --    0.11211   0.14520   0.49623   0.49671   0.52285
 Alpha virt. eigenvalues --    0.53441   0.91756   0.92327   0.95335   0.96767
 Alpha virt. eigenvalues --    0.99949   1.16371   1.24345   1.54937   1.62280

 Mulliken charges:
               1
     1  S   -0.111679
     2  H    0.055839
     3  H    0.055839
 Sum of Mulliken charges =   0.00000

 Dipole moment (field-independent basis, Debye):
    X=              0.0000    Y=              0.0000    Z=             -1.2951  Tot=              1.2951
 Quadrupole moment (field-independent basis, Debye-Ang):
   XX=            -17.1969   YY=            -11.5020   ZZ=            -14.5380
   XY=              0.0000   XZ=              0.0000   YZ=              0.0000

 Normal termination of Gaussian 09 at Tue Sep 30 07:40:08 2014.
