 Gaussian 09, Revision D.01,
 Gaussian 09:  ES64L-G09RevD.01 24-Apr-2013

 -----------------
 #RHF 6-31G(d',p')
 -----------------

 ------------------
 H2S.r1.30theta92.0
 ------------------
 Symbolic Z-matrix:
 Charge =  0 Multiplicity = 1

                         Standard orientation:
 ---------------------------------------------------------------------
 Center     Atomic      Atomic             Coordinates (Angstroms)
 Number     Number       Type             X           Y           Z
 ---------------------------------------------------------------------
      1         16           0        0.000000    0.000000    0.100340
      2          1           0        0.000000    0.935142   -0.802716
      3          1           0        0.000000   -0.935142   -0.802716
 ---------------------------------------------------------------------

 SCF Done:  E(RHF) =  -398.674823693     A.U. after   10 cycles

 The electronic state is 1-A1.
 Alpha  occ. eigenvalues --  -91.95054  -8.96372  -6.64666  -6.64553  -6.64301
 Alpha  occ. eigenvalues --   -0.99421  -0.60137  -0.50263  -0.38412
 Alpha virt. eigenvalues --    0.17750   0.22512   0.46985   0.47826   0.51424
 Alpha virt. eigenvalues --    0.53535   0.85780   0.89307   0.93274   0.95140
 Alpha virt. eigenvalues --    1.00590   1.31435   1.46718   1.68221   1.70881

 Mulliken charges:
               1
     1  S   -0.051736
     2  H    0.025868
     3  H    0.025868
 Sum of Mulliken charges =   0.00000

 Dipole moment (field-independent basis, Debye):
    X=              0.0000    Y=              0.0000    Z=             -1.3288  Tot=              1.3288
 Quadrupole moment (field-independent basis, Debye-Ang):
   XX=            -16.5728   YY=            -12.3220   ZZ=            -13.6807
   XY=              0.0000   XZ=              0.0000   YZ=              0.0000

 Normal termination of Gaussian 09 at Tue Sep 30 07:34:42 2014.
