 Gaussian 09, Revision D.01,
 Gaussian 09:  ES64L-G09RevD.01 24-Apr-2013

 -----------------
 #RHF 6-31G(d',p')
 -----------------

 ------------------
 H2S.r0.75theta91.0
 ------------------
 Symbolic Z-matrix:
 Charge =  0 Multiplicity = 1

                         Standard orientation:
 ---------------------------------------------------------------------
 Center     Atomic      Atomic             Coordinates (Angstroms)
 Number     Number       Type             X           Y           Z
 ---------------------------------------------------------------------
      1         16           0        0.000000    0.000000    0.058409
      2          1           0        0.000000    0.534938   -0.467273
      3          1           0        0.000000   -0.534938   -0.467273
 ---------------------------------------------------------------------

 SCF Done:  E(RHF) =  -397.463788191     A.U. after   10 cycles

 The electronic state is 1-A1.
 Alpha  occ. eigenvalues --  -91.86276  -8.97524  -6.66165  -6.65785  -6.62862
 Alpha  occ. eigenvalues --   -1.22342  -0.75803  -0.52761  -0.40055
 Alpha virt. eigenvalues --    0.23101   0.23944   0.47764   0.48946   0.51800
 Alpha virt. eigenvalues --    0.54480   0.84563   0.88418   0.92796   0.94697
 Alpha virt. eigenvalues --    1.06536   1.87163   1.91448   2.06670   2.25490

 Mulliken charges:
               1
     1  S    0.353571
     2  H   -0.176785
     3  H   -0.176785
 Sum of Mulliken charges =   0.00000

 Dipole moment (field-independent basis, Debye):
    X=              0.0000    Y=              0.0000    Z=             -1.2676  Tot=              1.2676
 Quadrupole moment (field-independent basis, Debye-Ang):
   XX=            -15.0690   YY=            -11.8693   ZZ=            -13.0557
   XY=              0.0000   XZ=              0.0000   YZ=              0.0000

 Normal termination of Gaussian 09 at Tue Sep 30 07:23:22 2014.
