 Gaussian 09, Revision D.01,
 Gaussian 09:  ES64L-G09RevD.01 24-Apr-2013

 -----------------
 #RHF 6-31G(d',p')
 -----------------

 -------------------
 H2S.r1.45theta148.0
 -------------------
 Symbolic Z-matrix:
 Charge =  0 Multiplicity = 1

                         Standard orientation:
 ---------------------------------------------------------------------
 Center     Atomic      Atomic             Coordinates (Angstroms)
 Number     Number       Type             X           Y           Z
 ---------------------------------------------------------------------
      1         16           0        0.000000    0.000000    0.044408
      2          1           0        0.000000    1.393829   -0.355266
      3          1           0        0.000000   -1.393829   -0.355266
 ---------------------------------------------------------------------

 SCF Done:  E(RHF) =  -398.588418005     A.U. after   10 cycles

 The electronic state is 1-A1.
 Alpha  occ. eigenvalues --  -91.95729  -8.96552  -6.64907  -6.64757  -6.64614
 Alpha  occ. eigenvalues --   -0.94783  -0.61964  -0.39964  -0.37648
 Alpha virt. eigenvalues --    0.04609   0.24986   0.44377   0.50378   0.53969
 Alpha virt. eigenvalues --    0.54131   0.84361   0.90271   0.98890   1.03336
 Alpha virt. eigenvalues --    1.03632   1.11317   1.28886   1.58153   1.63809

 Mulliken charges:
               1
     1  S   -0.252249
     2  H    0.126125
     3  H    0.126125
 Sum of Mulliken charges =   0.00000

 Dipole moment (field-independent basis, Debye):
    X=              0.0000    Y=              0.0000    Z=             -1.4531  Tot=              1.4531
 Quadrupole moment (field-independent basis, Debye-Ang):
   XX=            -17.1402   YY=             -9.4199   ZZ=            -16.0016
   XY=              0.0000   XZ=              0.0000   YZ=              0.0000

 Normal termination of Gaussian 09 at Tue Sep 30 07:38:29 2014.
