 Gaussian 09, Revision D.01,
 Gaussian 09:  ES64L-G09RevD.01 24-Apr-2013

 -----------------
 #RHF 6-31G(d',p')
 -----------------

 -------------------
 H2S.r1.60theta116.0
 -------------------
 Symbolic Z-matrix:
 Charge =  0 Multiplicity = 1

                         Standard orientation:
 ---------------------------------------------------------------------
 Center     Atomic      Atomic             Coordinates (Angstroms)
 Number     Number       Type             X           Y           Z
 ---------------------------------------------------------------------
      1         16           0        0.000000    0.000000    0.094208
      2          1           0        0.000000    1.356877   -0.753663
      3          1           0        0.000000   -1.356877   -0.753663
 ---------------------------------------------------------------------

 SCF Done:  E(RHF) =  -398.610040682     A.U. after   10 cycles

 The electronic state is 1-A1.
 Alpha  occ. eigenvalues --  -91.98508  -8.98763  -6.66983  -6.66889  -6.66672
 Alpha  occ. eigenvalues --   -0.92702  -0.55211  -0.44381  -0.38278
 Alpha virt. eigenvalues --    0.08470   0.14212   0.49386   0.50398   0.52549
 Alpha virt. eigenvalues --    0.53408   0.91119   0.93134   0.95935   0.98471
 Alpha virt. eigenvalues --    1.00947   1.14384   1.19295   1.55201   1.60889

 Mulliken charges:
               1
     1  S   -0.126188
     2  H    0.063094
     3  H    0.063094
 Sum of Mulliken charges =   0.00000

 Dipole moment (field-independent basis, Debye):
    X=              0.0000    Y=              0.0000    Z=             -1.2690  Tot=              1.2690
 Quadrupole moment (field-independent basis, Debye-Ang):
   XX=            -17.3153   YY=            -11.1647   ZZ=            -14.8085
   XY=              0.0000   XZ=              0.0000   YZ=              0.0000

 Normal termination of Gaussian 09 at Tue Sep 30 07:41:14 2014.
