 Gaussian 09, Revision D.01,
 Gaussian 09:  ES64L-G09RevD.01 24-Apr-2013

 -----------------
 #RHF 6-31G(d',p')
 -----------------

 -------------------
 H2S.r1.80theta143.0
 -------------------
 Symbolic Z-matrix:
 Charge =  0 Multiplicity = 1

                         Standard orientation:
 ---------------------------------------------------------------------
 Center     Atomic      Atomic             Coordinates (Angstroms)
 Number     Number       Type             X           Y           Z
 ---------------------------------------------------------------------
      1         16           0        0.000000    0.000000    0.063461
      2          1           0        0.000000    1.706983   -0.507687
      3          1           0        0.000000   -1.706983   -0.507687
 ---------------------------------------------------------------------

 SCF Done:  E(RHF) =  -398.503697177     A.U. after   11 cycles

 The electronic state is 1-A1.
 Alpha  occ. eigenvalues --  -91.99469  -8.99544  -6.67712  -6.67628  -6.67371
 Alpha  occ. eigenvalues --   -0.90176  -0.51785  -0.39419  -0.38163
 Alpha virt. eigenvalues --   -0.01839   0.12741   0.48720   0.53260   0.53317
 Alpha virt. eigenvalues --    0.58026   0.89959   0.96537   0.98971   1.03066
 Alpha virt. eigenvalues --    1.03450   1.04952   1.07604   1.53998   1.55160

 Mulliken charges:
               1
     1  S   -0.207874
     2  H    0.103937
     3  H    0.103937
 Sum of Mulliken charges =   0.00000

 Dipole moment (field-independent basis, Debye):
    X=              0.0000    Y=              0.0000    Z=             -1.0230  Tot=              1.0230
 Quadrupole moment (field-independent basis, Debye-Ang):
   XX=            -17.7715   YY=             -9.5833   ZZ=            -15.8917
   XY=              0.0000   XZ=              0.0000   YZ=              0.0000

 Normal termination of Gaussian 09 at Tue Sep 30 07:45:44 2014.
