 Gaussian 09, Revision D.01,
 Gaussian 09:  ES64L-G09RevD.01 24-Apr-2013

 -----------------
 #RHF 6-31G(d',p')
 -----------------

 ------------------
 H2S.r1.40theta85.0
 ------------------
 Symbolic Z-matrix:
 Charge =  0 Multiplicity = 1

                         Standard orientation:
 ---------------------------------------------------------------------
 Center     Atomic      Atomic             Coordinates (Angstroms)
 Number     Number       Type             X           Y           Z
 ---------------------------------------------------------------------
      1         16           0        0.000000    0.000000    0.114688
      2          1           0        0.000000    0.945826   -0.917501
      3          1           0        0.000000   -0.945826   -0.917501
 ---------------------------------------------------------------------

 SCF Done:  E(RHF) =  -398.669095888     A.U. after   10 cycles

 The electronic state is 1-A1.
 Alpha  occ. eigenvalues --  -91.96635  -8.97433  -6.65682  -6.65596  -6.65360
 Alpha  occ. eigenvalues --   -0.96951  -0.55827  -0.50713  -0.38454
 Alpha virt. eigenvalues --    0.14800   0.19493   0.49114   0.50323   0.50591
 Alpha virt. eigenvalues --    0.53473   0.87173   0.89140   0.95185   0.95551
 Alpha virt. eigenvalues --    0.98430   1.25213   1.34848   1.65417   1.70143

 Mulliken charges:
               1
     1  S   -0.059346
     2  H    0.029673
     3  H    0.029673
 Sum of Mulliken charges =   0.00000

 Dipole moment (field-independent basis, Debye):
    X=              0.0000    Y=              0.0000    Z=             -1.2608  Tot=              1.2608
 Quadrupole moment (field-independent basis, Debye-Ang):
   XX=            -16.8270   YY=            -12.7675   ZZ=            -13.4255
   XY=              0.0000   XZ=              0.0000   YZ=              0.0000

 Normal termination of Gaussian 09 at Tue Sep 30 07:36:43 2014.
