 Gaussian 09, Revision D.01,
 Gaussian 09:  ES64L-G09RevD.01 24-Apr-2013

 -----------------
 #RHF 6-31G(d',p')
 -----------------

 -------------------
 H2S.r1.65theta114.0
 -------------------
 Symbolic Z-matrix:
 Charge =  0 Multiplicity = 1

                         Standard orientation:
 ---------------------------------------------------------------------
 Center     Atomic      Atomic             Coordinates (Angstroms)
 Number     Number       Type             X           Y           Z
 ---------------------------------------------------------------------
      1         16           0        0.000000    0.000000    0.099850
      2          1           0        0.000000    1.383806   -0.798804
      3          1           0        0.000000   -1.383806   -0.798804
 ---------------------------------------------------------------------

 SCF Done:  E(RHF) =  -398.596376808     A.U. after   10 cycles

 The electronic state is 1-A1.
 Alpha  occ. eigenvalues --  -91.99038  -8.99198  -6.67402  -6.67312  -6.67083
 Alpha  occ. eigenvalues --   -0.92066  -0.53721  -0.44307  -0.38355
 Alpha virt. eigenvalues --    0.07525   0.12632   0.49806   0.51091   0.53050
 Alpha virt. eigenvalues --    0.53306   0.91746   0.92988   0.97083   0.98650
 Alpha virt. eigenvalues --    1.01138   1.11989   1.16788   1.54619   1.58944

 Mulliken charges:
               1
     1  S   -0.127855
     2  H    0.063928
     3  H    0.063928
 Sum of Mulliken charges =   0.00000

 Dipole moment (field-independent basis, Debye):
    X=              0.0000    Y=              0.0000    Z=             -1.2206  Tot=              1.2206
 Quadrupole moment (field-independent basis, Debye-Ang):
   XX=            -17.4098   YY=            -11.2557   ZZ=            -14.7348
   XY=              0.0000   XZ=              0.0000   YZ=              0.0000

 Normal termination of Gaussian 09 at Tue Sep 30 07:42:16 2014.
