 Gaussian 09, Revision D.01,
 Gaussian 09:  ES64L-G09RevD.01 24-Apr-2013

 -----------------
 #RHF 6-31G(d',p')
 -----------------

 ------------------
 H2S.r1.00theta70.0
 ------------------
 Symbolic Z-matrix:
 Charge =  0 Multiplicity = 1

                         Standard orientation:
 ---------------------------------------------------------------------
 Center     Atomic      Atomic             Coordinates (Angstroms)
 Number     Number       Type             X           Y           Z
 ---------------------------------------------------------------------
      1         16           0        0.000000    0.000000    0.091017
      2          1           0        0.000000    0.573576   -0.728135
      3          1           0        0.000000   -0.573576   -0.728135
 ---------------------------------------------------------------------

 SCF Done:  E(RHF) =  -398.422493586     A.U. after   10 cycles

 The electronic state is 1-A1.
 Alpha  occ. eigenvalues --  -91.89699  -8.94214  -6.62745  -6.62320  -6.61612
 Alpha  occ. eigenvalues --   -1.13571  -0.61537  -0.56204  -0.39036
 Alpha virt. eigenvalues --    0.21476   0.29841   0.36529   0.48115   0.51385
 Alpha virt. eigenvalues --    0.52954   0.86001   0.86774   0.89999   0.96017
 Alpha virt. eigenvalues --    1.06255   1.62944   1.66849   1.83794   1.90894

 Mulliken charges:
               1
     1  S    0.022287
     2  H   -0.011144
     3  H   -0.011144
 Sum of Mulliken charges =   0.00000

 Dipole moment (field-independent basis, Debye):
    X=              0.0000    Y=              0.0000    Z=             -1.1977  Tot=              1.1977
 Quadrupole moment (field-independent basis, Debye-Ang):
   XX=            -15.8066   YY=            -12.7732   ZZ=            -12.6180
   XY=              0.0000   XZ=              0.0000   YZ=              0.0000

 Normal termination of Gaussian 09 at Tue Sep 30 07:28:15 2014.
