 Gaussian 09, Revision D.01,
 Gaussian 09:  ES64L-G09RevD.01 24-Apr-2013

 -----------------
 #RHF 6-31G(d',p')
 -----------------

 -------------------
 H2S.r1.75theta136.0
 -------------------
 Symbolic Z-matrix:
 Charge =  0 Multiplicity = 1

                         Standard orientation:
 ---------------------------------------------------------------------
 Center     Atomic      Atomic             Coordinates (Angstroms)
 Number     Number       Type             X           Y           Z
 ---------------------------------------------------------------------
      1         16           0        0.000000    0.000000    0.072840
      2          1           0        0.000000    1.622572   -0.582721
      3          1           0        0.000000   -1.622572   -0.582721
 ---------------------------------------------------------------------

 SCF Done:  E(RHF) =  -398.532535469     A.U. after   11 cycles

 The electronic state is 1-A1.
 Alpha  occ. eigenvalues --  -91.99304  -8.99406  -6.67586  -6.67503  -6.67255
 Alpha  occ. eigenvalues --   -0.90717  -0.52733  -0.40635  -0.38202
 Alpha virt. eigenvalues --    0.00508   0.13270   0.48776   0.53116   0.53327
 Alpha virt. eigenvalues --    0.55351   0.89848   0.95691   0.98162   1.02414
 Alpha virt. eigenvalues --    1.03053   1.07538   1.09332   1.54662   1.56374

 Mulliken charges:
               1
     1  S   -0.183569
     2  H    0.091785
     3  H    0.091785
 Sum of Mulliken charges =   0.00000

 Dipole moment (field-independent basis, Debye):
    X=              0.0000    Y=              0.0000    Z=             -1.1103  Tot=              1.1103
 Quadrupole moment (field-independent basis, Debye-Ang):
   XX=            -17.6608   YY=             -9.9976   ZZ=            -15.6416
   XY=              0.0000   XZ=              0.0000   YZ=              0.0000

 Normal termination of Gaussian 09 at Tue Sep 30 07:44:38 2014.
