 Gaussian 09, Revision D.01,
 Gaussian 09:  ES64L-G09RevD.01 24-Apr-2013

 -----------------
 #RHF 6-31G(d',p')
 -----------------

 -------------------
 H2S.r1.45theta133.0
 -------------------
 Symbolic Z-matrix:
 Charge =  0 Multiplicity = 1

                         Standard orientation:
 ---------------------------------------------------------------------
 Center     Atomic      Atomic             Coordinates (Angstroms)
 Number     Number       Type             X           Y           Z
 ---------------------------------------------------------------------
      1         16           0        0.000000    0.000000    0.064243
      2          1           0        0.000000    1.329737   -0.513943
      3          1           0        0.000000   -1.329737   -0.513943
 ---------------------------------------------------------------------

 SCF Done:  E(RHF) =  -398.621466628     A.U. after   10 cycles

 The electronic state is 1-A1.
 Alpha  occ. eigenvalues --  -91.96386  -8.97116  -6.65422  -6.65291  -6.65117
 Alpha  occ. eigenvalues --   -0.95085  -0.61134  -0.42502  -0.37987
 Alpha virt. eigenvalues --    0.08519   0.21426   0.45178   0.48599   0.53359
 Alpha virt. eigenvalues --    0.53736   0.87255   0.91231   0.96608   1.00732
 Alpha virt. eigenvalues --    1.01839   1.20052   1.25311   1.61807   1.62906

 Mulliken charges:
               1
     1  S   -0.164032
     2  H    0.082016
     3  H    0.082016
 Sum of Mulliken charges =   0.00000

 Dipole moment (field-independent basis, Debye):
    X=              0.0000    Y=              0.0000    Z=             -1.4675  Tot=              1.4675
 Quadrupole moment (field-independent basis, Debye-Ang):
   XX=            -17.0454   YY=            -10.3537   ZZ=            -15.3980
   XY=              0.0000   XZ=              0.0000   YZ=              0.0000

 Normal termination of Gaussian 09 at Tue Sep 30 07:38:18 2014.
