 Gaussian 09, Revision D.01,
 Gaussian 09:  ES64L-G09RevD.01 24-Apr-2013

 -----------------
 #RHF 6-31G(d',p')
 -----------------

 ------------------
 H2S.r1.15theta99.0
 ------------------
 Symbolic Z-matrix:
 Charge =  0 Multiplicity = 1

                         Standard orientation:
 ---------------------------------------------------------------------
 Center     Atomic      Atomic             Coordinates (Angstroms)
 Number     Number       Type             X           Y           Z
 ---------------------------------------------------------------------
      1         16           0        0.000000    0.000000    0.082985
      2          1           0        0.000000    0.874467   -0.663880
      3          1           0        0.000000   -0.874467   -0.663880
 ---------------------------------------------------------------------

 SCF Done:  E(RHF) =  -398.626647789     A.U. after    9 cycles

 The electronic state is 1-A1.
 Alpha  occ. eigenvalues --  -91.92346  -8.94912  -6.63299  -6.63093  -6.62735
 Alpha  occ. eigenvalues --   -1.04190  -0.66529  -0.49810  -0.38532
 Alpha virt. eigenvalues --    0.21338   0.26954   0.41279   0.46281   0.52191
 Alpha virt. eigenvalues --    0.53410   0.85434   0.89431   0.90854   0.95458
 Alpha virt. eigenvalues --    1.03009   1.44036   1.62691   1.71906   1.80618

 Mulliken charges:
               1
     1  S   -0.036454
     2  H    0.018227
     3  H    0.018227
 Sum of Mulliken charges =   0.00000

 Dipole moment (field-independent basis, Debye):
    X=              0.0000    Y=              0.0000    Z=             -1.4287  Tot=              1.4287
 Quadrupole moment (field-independent basis, Debye-Ang):
   XX=            -16.1680   YY=            -11.9124   ZZ=            -13.8045
   XY=              0.0000   XZ=              0.0000   YZ=              0.0000

 Normal termination of Gaussian 09 at Tue Sep 30 07:31:40 2014.
