 Gaussian 09, Revision D.01,
 Gaussian 09:  ES64L-G09RevD.01 24-Apr-2013

 -----------------
 #RHF 6-31G(d',p')
 -----------------

 -------------------
 H2S.r1.55theta104.0
 -------------------
 Symbolic Z-matrix:
 Charge =  0 Multiplicity = 1

                         Standard orientation:
 ---------------------------------------------------------------------
 Center     Atomic      Atomic             Coordinates (Angstroms)
 Number     Number       Type             X           Y           Z
 ---------------------------------------------------------------------
      1         16           0        0.000000    0.000000    0.106031
      2          1           0        0.000000    1.221417   -0.848245
      3          1           0        0.000000   -1.221417   -0.848245
 ---------------------------------------------------------------------

 SCF Done:  E(RHF) =  -398.635361789     A.U. after   10 cycles

 The electronic state is 1-A1.
 Alpha  occ. eigenvalues --  -91.98239  -8.98570  -6.66801  -6.66701  -6.66488
 Alpha  occ. eigenvalues --   -0.93597  -0.55174  -0.46495  -0.38361
 Alpha virt. eigenvalues --    0.12383   0.13626   0.49697   0.50201   0.52594
 Alpha virt. eigenvalues --    0.53401   0.91578   0.92248   0.95804   0.95844
 Alpha virt. eigenvalues --    0.99335   1.16097   1.25570   1.54698   1.61599

 Mulliken charges:
               1
     1  S   -0.103925
     2  H    0.051963
     3  H    0.051963
 Sum of Mulliken charges =   0.00000

 Dipole moment (field-independent basis, Debye):
    X=              0.0000    Y=              0.0000    Z=             -1.2755  Tot=              1.2755
 Quadrupole moment (field-independent basis, Debye-Ang):
   XX=            -17.1871   YY=            -11.8268   ZZ=            -14.2774
   XY=              0.0000   XZ=              0.0000   YZ=              0.0000

 Normal termination of Gaussian 09 at Tue Sep 30 07:40:04 2014.
