 Gaussian 09, Revision D.01,
 Gaussian 09:  ES64L-G09RevD.01 24-Apr-2013

 -----------------
 #RHF 6-31G(d',p')
 -----------------

 -------------------
 H2S.r0.65theta144.0
 -------------------
 Symbolic Z-matrix:
 Charge =  0 Multiplicity = 1

                         Standard orientation:
 ---------------------------------------------------------------------
 Center     Atomic      Atomic             Coordinates (Angstroms)
 Number     Number       Type             X           Y           Z
 ---------------------------------------------------------------------
      1         16           0        0.000000    0.000000    0.022318
      2          1           0        0.000000    0.618187   -0.178543
      3          1           0        0.000000   -0.618187   -0.178543
 ---------------------------------------------------------------------

 SCF Done:  E(RHF) =  -396.497068855     A.U. after   10 cycles

 The electronic state is 1-A1.
 Alpha  occ. eigenvalues --  -91.89224  -9.05443  -6.78714  -6.69783  -6.68800
 Alpha  occ. eigenvalues --   -1.22108  -0.88951  -0.44188  -0.41471
 Alpha virt. eigenvalues --    0.18527   0.24589   0.50085   0.50389   0.50472
 Alpha virt. eigenvalues --    0.57797   0.82218   0.85904   0.94820   0.99675
 Alpha virt. eigenvalues --    0.99736   1.92649   1.99862   2.04505   2.33724

 Mulliken charges:
               1
     1  S    0.671109
     2  H   -0.335554
     3  H   -0.335554
 Sum of Mulliken charges =   0.00000

 Dipole moment (field-independent basis, Debye):
    X=              0.0000    Y=              0.0000    Z=             -1.3710  Tot=              1.3710
 Quadrupole moment (field-independent basis, Debye-Ang):
   XX=            -14.5397   YY=            -11.6153   ZZ=            -14.0107
   XY=              0.0000   XZ=              0.0000   YZ=              0.0000

 Normal termination of Gaussian 09 at Tue Sep 30 07:21:55 2014.
