 Gaussian 09, Revision D.01,
 Gaussian 09:  ES64L-G09RevD.01 24-Apr-2013

 -----------------
 #RHF 6-31G(d',p')
 -----------------

 -------------------
 H2S.r1.30theta111.0
 -------------------
 Symbolic Z-matrix:
 Charge =  0 Multiplicity = 1

                         Standard orientation:
 ---------------------------------------------------------------------
 Center     Atomic      Atomic             Coordinates (Angstroms)
 Number     Number       Type             X           Y           Z
 ---------------------------------------------------------------------
      1         16           0        0.000000    0.000000    0.081814
      2          1           0        0.000000    1.071364   -0.654514
      3          1           0        0.000000   -1.071364   -0.654514
 ---------------------------------------------------------------------

 SCF Done:  E(RHF) =  -398.666631674     A.U. after   10 cycles

 The electronic state is 1-A1.
 Alpha  occ. eigenvalues --  -91.94835  -8.96194  -6.64539  -6.64364  -6.64159
 Alpha  occ. eigenvalues --   -0.99038  -0.63717  -0.46945  -0.38297
 Alpha virt. eigenvalues --    0.19146   0.20481   0.44561   0.46646   0.52354
 Alpha virt. eigenvalues --    0.53593   0.90108   0.90539   0.92468   0.97373
 Alpha virt. eigenvalues --    0.97979   1.32004   1.45458   1.60059   1.74795

 Mulliken charges:
               1
     1  S   -0.086603
     2  H    0.043302
     3  H    0.043302
 Sum of Mulliken charges =   0.00000

 Dipole moment (field-independent basis, Debye):
    X=              0.0000    Y=              0.0000    Z=             -1.4768  Tot=              1.4768
 Quadrupole moment (field-independent basis, Debye-Ang):
   XX=            -16.5906   YY=            -11.4895   ZZ=            -14.4122
   XY=              0.0000   XZ=              0.0000   YZ=              0.0000

 Normal termination of Gaussian 09 at Tue Sep 30 07:34:55 2014.
