 Gaussian 09, Revision D.01,
 Gaussian 09:  ES64L-G09RevD.01 24-Apr-2013

 -----------------
 #RHF 6-31G(d',p')
 -----------------

 ------------------
 H2S.r0.80theta85.0
 ------------------
 Symbolic Z-matrix:
 Charge =  0 Multiplicity = 1

                         Standard orientation:
 ---------------------------------------------------------------------
 Center     Atomic      Atomic             Coordinates (Angstroms)
 Number     Number       Type             X           Y           Z
 ---------------------------------------------------------------------
      1         16           0        0.000000    0.000000    0.065536
      2          1           0        0.000000    0.540472   -0.524286
      3          1           0        0.000000   -0.540472   -0.524286
 ---------------------------------------------------------------------

 SCF Done:  E(RHF) =  -397.771198695     A.U. after   10 cycles

 The electronic state is 1-A1.
 Alpha  occ. eigenvalues --  -91.86475  -8.95862  -6.64367  -6.64183  -6.61883
 Alpha  occ. eigenvalues --   -1.21135  -0.72498  -0.53812  -0.39763
 Alpha virt. eigenvalues --    0.22945   0.25504   0.45396   0.48271   0.52116
 Alpha virt. eigenvalues --    0.53114   0.84256   0.87594   0.93569   0.93629
 Alpha virt. eigenvalues --    1.08008   1.80307   1.86507   2.03074   2.14258

 Mulliken charges:
               1
     1  S    0.254259
     2  H   -0.127130
     3  H   -0.127130
 Sum of Mulliken charges =   0.00000

 Dipole moment (field-independent basis, Debye):
    X=              0.0000    Y=              0.0000    Z=             -1.2324  Tot=              1.2324
 Quadrupole moment (field-independent basis, Debye-Ang):
   XX=            -15.2328   YY=            -12.0212   ZZ=            -12.9421
   XY=              0.0000   XZ=              0.0000   YZ=              0.0000

 Normal termination of Gaussian 09 at Tue Sep 30 07:24:20 2014.
