 Gaussian 09, Revision D.01,
 Gaussian 09:  ES64L-G09RevD.01 24-Apr-2013

 -----------------
 #RHF 6-31G(d',p')
 -----------------

 -------------------
 H2S.r0.90theta120.0
 -------------------
 Symbolic Z-matrix:
 Charge =  0 Multiplicity = 1

                         Standard orientation:
 ---------------------------------------------------------------------
 Center     Atomic      Atomic             Coordinates (Angstroms)
 Number     Number       Type             X           Y           Z
 ---------------------------------------------------------------------
      1         16           0        0.000000    0.000000    0.050000
      2          1           0        0.000000    0.779423   -0.400000
      3          1           0        0.000000   -0.779423   -0.400000
 ---------------------------------------------------------------------

 SCF Done:  E(RHF) =  -398.192707251     A.U. after    9 cycles

 The electronic state is 1-A1.
 Alpha  occ. eigenvalues --  -91.87912  -8.94656  -6.63715  -6.62335  -6.61658
 Alpha  occ. eigenvalues --   -1.13947  -0.80116  -0.46772  -0.39446
 Alpha virt. eigenvalues --    0.25403   0.25478   0.38703   0.45665   0.52182
 Alpha virt. eigenvalues --    0.52447   0.87155   0.88990   0.93379   0.98583
 Alpha virt. eigenvalues --    1.00141   1.69416   1.69653   1.94478   1.98844

 Mulliken charges:
               1
     1  S    0.138061
     2  H   -0.069030
     3  H   -0.069030
 Sum of Mulliken charges =   0.00000

 Dipole moment (field-independent basis, Debye):
    X=              0.0000    Y=              0.0000    Z=             -1.6312  Tot=              1.6312
 Quadrupole moment (field-independent basis, Debye-Ang):
   XX=            -15.4282   YY=            -11.4054   ZZ=            -14.0609
   XY=              0.0000   XZ=              0.0000   YZ=              0.0000

 Normal termination of Gaussian 09 at Tue Sep 30 07:26:46 2014.
