 Gaussian 09, Revision D.01,
 Gaussian 09:  ES64L-G09RevD.01 24-Apr-2013

 -----------------
 #RHF 6-31G(d',p')
 -----------------

 -------------------
 H2S.r1.20theta119.0
 -------------------
 Symbolic Z-matrix:
 Charge =  0 Multiplicity = 1

                         Standard orientation:
 ---------------------------------------------------------------------
 Center     Atomic      Atomic             Coordinates (Angstroms)
 Number     Number       Type             X           Y           Z
 ---------------------------------------------------------------------
      1         16           0        0.000000    0.000000    0.067672
      2          1           0        0.000000    1.033955   -0.541374
      3          1           0        0.000000   -1.033955   -0.541374
 ---------------------------------------------------------------------

 SCF Done:  E(RHF) =  -398.635367573     A.U. after    9 cycles

 The electronic state is 1-A1.
 Alpha  occ. eigenvalues --  -91.93118  -8.95267  -6.63713  -6.63413  -6.63196
 Alpha  occ. eigenvalues --   -1.02033  -0.68511  -0.45938  -0.38408
 Alpha virt. eigenvalues --    0.20406   0.23746   0.41179   0.45285   0.52829
 Alpha virt. eigenvalues --    0.53488   0.88238   0.89757   0.94075   0.98052
 Alpha virt. eigenvalues --    0.98714   1.41195   1.46400   1.70722   1.77204

 Mulliken charges:
               1
     1  S   -0.090154
     2  H    0.045077
     3  H    0.045077
 Sum of Mulliken charges =   0.00000

 Dipole moment (field-independent basis, Debye):
    X=              0.0000    Y=              0.0000    Z=             -1.5859  Tot=              1.5859
 Quadrupole moment (field-independent basis, Debye-Ang):
   XX=            -16.3251   YY=            -11.2133   ZZ=            -14.5749
   XY=              0.0000   XZ=              0.0000   YZ=              0.0000

 Normal termination of Gaussian 09 at Tue Sep 30 07:32:56 2014.
