 Gaussian 09, Revision D.01,
 Gaussian 09:  ES64L-G09RevD.01 24-Apr-2013

 -----------------
 #RHF 6-31G(d',p')
 -----------------

 -------------------
 H2S.r1.70theta107.0
 -------------------
 Symbolic Z-matrix:
 Charge =  0 Multiplicity = 1

                         Standard orientation:
 ---------------------------------------------------------------------
 Center     Atomic      Atomic             Coordinates (Angstroms)
 Number     Number       Type             X           Y           Z
 ---------------------------------------------------------------------
      1         16           0        0.000000    0.000000    0.112355
      2          1           0        0.000000    1.366557   -0.898843
      3          1           0        0.000000   -1.366557   -0.898843
 ---------------------------------------------------------------------

 SCF Done:  E(RHF) =  -398.585609568     A.U. after   10 cycles

 The electronic state is 1-A1.
 Alpha  occ. eigenvalues --  -91.99636  -8.99704  -6.67892  -6.67806  -6.67564
 Alpha  occ. eigenvalues --   -0.91571  -0.51814  -0.44837  -0.38492
 Alpha virt. eigenvalues --    0.07518   0.10410   0.49788   0.51632   0.53166
 Alpha virt. eigenvalues --    0.54724   0.92557   0.92968   0.98110   0.98374
 Alpha virt. eigenvalues --    1.00986   1.09670   1.15123   1.54096   1.57036

 Mulliken charges:
               1
     1  S   -0.125381
     2  H    0.062690
     3  H    0.062690
 Sum of Mulliken charges =   0.00000

 Dipole moment (field-independent basis, Debye):
    X=              0.0000    Y=              0.0000    Z=             -1.1764  Tot=              1.1764
 Quadrupole moment (field-independent basis, Debye-Ang):
   XX=            -17.4916   YY=            -11.6363   ZZ=            -14.4204
   XY=              0.0000   XZ=              0.0000   YZ=              0.0000

 Normal termination of Gaussian 09 at Tue Sep 30 07:43:13 2014.
