 Gaussian 09, Revision D.01,
 Gaussian 09:  ES64L-G09RevD.01 24-Apr-2013

 -----------------
 #RHF 6-31G(d',p')
 -----------------

 ------------------
 H2S.r0.85theta72.0
 ------------------
 Symbolic Z-matrix:
 Charge =  0 Multiplicity = 1

                         Standard orientation:
 ---------------------------------------------------------------------
 Center     Atomic      Atomic             Coordinates (Angstroms)
 Number     Number       Type             X           Y           Z
 ---------------------------------------------------------------------
      1         16           0        0.000000    0.000000    0.076407
      2          1           0        0.000000    0.499617   -0.611257
      3          1           0        0.000000   -0.499617   -0.611257
 ---------------------------------------------------------------------

 SCF Done:  E(RHF) =  -397.989870536     A.U. after   10 cycles

 The electronic state is 1-A1.
 Alpha  occ. eigenvalues --  -91.87194  -8.94993  -6.63840  -6.62916  -6.61501
 Alpha  occ. eigenvalues --   -1.21392  -0.65777  -0.56335  -0.39621
 Alpha virt. eigenvalues --    0.22774   0.26352   0.41784   0.48526   0.51778
 Alpha virt. eigenvalues --    0.52312   0.86664   0.87045   0.91026   0.95708
 Alpha virt. eigenvalues --    1.06945   1.78049   1.81321   1.96411   2.01544

 Mulliken charges:
               1
     1  S    0.160306
     2  H   -0.080153
     3  H   -0.080153
 Sum of Mulliken charges =   0.00000

 Dipole moment (field-independent basis, Debye):
    X=              0.0000    Y=              0.0000    Z=             -1.1568  Tot=              1.1568
 Quadrupole moment (field-independent basis, Debye-Ang):
   XX=            -15.4054   YY=            -12.4548   ZZ=            -12.5887
   XY=              0.0000   XZ=              0.0000   YZ=              0.0000

 Normal termination of Gaussian 09 at Tue Sep 30 07:25:12 2014.
