 Gaussian 09, Revision D.01,
 Gaussian 09:  ES64L-G09RevD.01 24-Apr-2013

 -----------------
 #RHF 6-31G(d',p')
 -----------------

 -------------------
 H2S.r1.30theta150.0
 -------------------
 Symbolic Z-matrix:
 Charge =  0 Multiplicity = 1

                         Standard orientation:
 ---------------------------------------------------------------------
 Center     Atomic      Atomic             Coordinates (Angstroms)
 Number     Number       Type             X           Y           Z
 ---------------------------------------------------------------------
      1         16           0        0.000000    0.000000    0.037385
      2          1           0        0.000000    1.255704   -0.299080
      3          1           0        0.000000   -1.255704   -0.299080
 ---------------------------------------------------------------------

 SCF Done:  E(RHF) =  -398.594951182     A.U. after   10 cycles

 The electronic state is 1-A1.
 Alpha  occ. eigenvalues --  -91.93953  -8.95528  -6.64010  -6.63750  -6.63647
 Alpha  occ. eigenvalues --   -0.98550  -0.67510  -0.40163  -0.37903
 Alpha virt. eigenvalues --    0.08518   0.30377   0.41916   0.46390   0.53810
 Alpha virt. eigenvalues --    0.54066   0.83110   0.86723   0.98943   1.03105
 Alpha virt. eigenvalues --    1.03323   1.19364   1.40915   1.60863   1.71648

 Mulliken charges:
               1
     1  S   -0.249110
     2  H    0.124555
     3  H    0.124555
 Sum of Mulliken charges =   0.00000

 Dipole moment (field-independent basis, Debye):
    X=              0.0000    Y=              0.0000    Z=             -1.5116  Tot=              1.5116
 Quadrupole moment (field-independent basis, Debye-Ang):
   XX=            -16.7316   YY=             -9.6875   ZZ=            -15.8952
   XY=              0.0000   XZ=              0.0000   YZ=              0.0000

 Normal termination of Gaussian 09 at Tue Sep 30 07:35:22 2014.
