 Gaussian 09, Revision D.01,
 Gaussian 09:  ES64L-G09RevD.01 24-Apr-2013

 -----------------
 #RHF 6-31G(d',p')
 -----------------

 ------------------
 H2S.r1.60theta77.0
 ------------------
 Symbolic Z-matrix:
 Charge =  0 Multiplicity = 1

                         Standard orientation:
 ---------------------------------------------------------------------
 Center     Atomic      Atomic             Coordinates (Angstroms)
 Number     Number       Type             X           Y           Z
 ---------------------------------------------------------------------
      1         16           0        0.000000    0.000000    0.139130
      2          1           0        0.000000    0.996023   -1.113043
      3          1           0        0.000000   -0.996023   -1.113043
 ---------------------------------------------------------------------

 SCF Done:  E(RHF) =  -398.617996155     A.U. after    9 cycles

 The electronic state is 1-A1.
 Alpha  occ. eigenvalues --  -91.99046  -8.99266  -6.67449  -6.67392  -6.67135
 Alpha  occ. eigenvalues --   -0.93250  -0.49935  -0.49652  -0.38624
 Alpha virt. eigenvalues --    0.09487   0.13205   0.49015   0.51278   0.53182
 Alpha virt. eigenvalues --    0.55260   0.90115   0.92901   0.94597   0.97338
 Alpha virt. eigenvalues --    0.99080   1.15646   1.17677   1.58123   1.59926

 Mulliken charges:
               1
     1  S   -0.091405
     2  H    0.045703
     3  H    0.045703
 Sum of Mulliken charges =   0.00000

 Dipole moment (field-independent basis, Debye):
    X=              0.0000    Y=              0.0000    Z=             -1.2153  Tot=              1.2153
 Quadrupole moment (field-independent basis, Debye-Ang):
   XX=            -17.2871   YY=            -13.4432   ZZ=            -12.9696
   XY=              0.0000   XZ=              0.0000   YZ=              0.0000

 Normal termination of Gaussian 09 at Tue Sep 30 07:40:48 2014.
