 Gaussian 09, Revision D.01,
 Gaussian 09:  ES64L-G09RevD.01 24-Apr-2013

 -----------------
 #RHF 6-31G(d',p')
 -----------------

 -------------------
 H2S.r1.35theta134.0
 -------------------
 Symbolic Z-matrix:
 Charge =  0 Multiplicity = 1

                         Standard orientation:
 ---------------------------------------------------------------------
 Center     Atomic      Atomic             Coordinates (Angstroms)
 Number     Number       Type             X           Y           Z
 ---------------------------------------------------------------------
      1         16           0        0.000000    0.000000    0.058610
      2          1           0        0.000000    1.242682   -0.468877
      3          1           0        0.000000   -1.242682   -0.468877
 ---------------------------------------------------------------------

 SCF Done:  E(RHF) =  -398.631367040     A.U. after   10 cycles

 The electronic state is 1-A1.
 Alpha  occ. eigenvalues --  -91.95116  -8.96290  -6.64662  -6.64477  -6.64320
 Alpha  occ. eigenvalues --   -0.97415  -0.64649  -0.42712  -0.38056
 Alpha virt. eigenvalues --    0.11248   0.24268   0.43333   0.46740   0.53502
 Alpha virt. eigenvalues --    0.53729   0.86754   0.88938   0.97517   1.00485
 Alpha virt. eigenvalues --    1.01484   1.24854   1.32442   1.64398   1.68774

 Mulliken charges:
               1
     1  S   -0.160441
     2  H    0.080220
     3  H    0.080220
 Sum of Mulliken charges =   0.00000

 Dipole moment (field-independent basis, Debye):
    X=              0.0000    Y=              0.0000    Z=             -1.5572  Tot=              1.5572
 Quadrupole moment (field-independent basis, Debye-Ang):
   XX=            -16.7927   YY=            -10.4262   ZZ=            -15.3338
   XY=              0.0000   XZ=              0.0000   YZ=              0.0000

 Normal termination of Gaussian 09 at Tue Sep 30 07:36:14 2014.
