 Gaussian 09, Revision D.01,
 Gaussian 09:  ES64L-G09RevD.01 24-Apr-2013

 -----------------
 #RHF 6-31G(d',p')
 -----------------

 -------------------
 H2S.r1.65theta131.0
 -------------------
 Symbolic Z-matrix:
 Charge =  0 Multiplicity = 1

                         Standard orientation:
 ---------------------------------------------------------------------
 Center     Atomic      Atomic             Coordinates (Angstroms)
 Number     Number       Type             X           Y           Z
 ---------------------------------------------------------------------
      1         16           0        0.000000    0.000000    0.076027
      2          1           0        0.000000    1.501436   -0.608217
      3          1           0        0.000000   -1.501436   -0.608217
 ---------------------------------------------------------------------

 SCF Done:  E(RHF) =  -398.573030364     A.U. after   10 cycles

 The electronic state is 1-A1.
 Alpha  occ. eigenvalues --  -91.98566  -8.98789  -6.67001  -6.66911  -6.66686
 Alpha  occ. eigenvalues --   -0.91845  -0.55041  -0.41886  -0.38131
 Alpha virt. eigenvalues --    0.03772   0.15364   0.48247   0.52415   0.52964
 Alpha virt. eigenvalues --    0.53465   0.89075   0.95041   0.96203   1.01466
 Alpha virt. eigenvalues --    1.02500   1.12226   1.13482   1.56129   1.58224

 Mulliken charges:
               1
     1  S   -0.165057
     2  H    0.082529
     3  H    0.082529
 Sum of Mulliken charges =   0.00000

 Dipole moment (field-independent basis, Debye):
    X=              0.0000    Y=              0.0000    Z=             -1.2379  Tot=              1.2379
 Quadrupole moment (field-independent basis, Debye-Ang):
   XX=            -17.4642   YY=            -10.3230   ZZ=            -15.4307
   XY=              0.0000   XZ=              0.0000   YZ=              0.0000

 Normal termination of Gaussian 09 at Tue Sep 30 07:42:27 2014.
