 Gaussian 09, Revision D.01,
 Gaussian 09:  ES64L-G09RevD.01 24-Apr-2013

 -----------------
 #RHF 6-31G(d',p')
 -----------------

 -------------------
 H2S.r1.05theta127.0
 -------------------
 Symbolic Z-matrix:
 Charge =  0 Multiplicity = 1

                         Standard orientation:
 ---------------------------------------------------------------------
 Center     Atomic      Atomic             Coordinates (Angstroms)
 Number     Number       Type             X           Y           Z
 ---------------------------------------------------------------------
      1         16           0        0.000000    0.000000    0.052056
      2          1           0        0.000000    0.939681   -0.416451
      3          1           0        0.000000   -0.939681   -0.416451
 ---------------------------------------------------------------------

 SCF Done:  E(RHF) =  -398.503061197     A.U. after   10 cycles

 The electronic state is 1-A1.
 Alpha  occ. eigenvalues --  -91.90517  -8.94459  -6.63169  -6.62440  -6.62156
 Alpha  occ. eigenvalues --   -1.07499  -0.75532  -0.45002  -0.38860
 Alpha virt. eigenvalues --    0.22388   0.26674   0.37920   0.44354   0.52869
 Alpha virt. eigenvalues --    0.53032   0.86165   0.88312   0.95648   0.99170
 Alpha virt. eigenvalues --    0.99584   1.50702   1.55606   1.82649   1.87661

 Mulliken charges:
               1
     1  S   -0.049324
     2  H    0.024662
     3  H    0.024662
 Sum of Mulliken charges =   0.00000

 Dipole moment (field-independent basis, Debye):
    X=              0.0000    Y=              0.0000    Z=             -1.6709  Tot=              1.6709
 Quadrupole moment (field-independent basis, Debye-Ang):
   XX=            -15.8807   YY=            -11.1201   ZZ=            -14.5733
   XY=              0.0000   XZ=              0.0000   YZ=              0.0000

 Normal termination of Gaussian 09 at Tue Sep 30 07:29:55 2014.
