 Gaussian 09, Revision D.01,
 Gaussian 09:  ES64L-G09RevD.01 24-Apr-2013

 -----------------
 #RHF 6-31G(d',p')
 -----------------

 -------------------
 H2S.r0.95theta127.0
 -------------------
 Symbolic Z-matrix:
 Charge =  0 Multiplicity = 1

                         Standard orientation:
 ---------------------------------------------------------------------
 Center     Atomic      Atomic             Coordinates (Angstroms)
 Number     Number       Type             X           Y           Z
 ---------------------------------------------------------------------
      1         16           0        0.000000    0.000000    0.047099
      2          1           0        0.000000    0.850188   -0.376789
      3          1           0        0.000000   -0.850188   -0.376789
 ---------------------------------------------------------------------

 SCF Done:  E(RHF) =  -398.321450144     A.U. after   10 cycles

 The electronic state is 1-A1.
 Alpha  occ. eigenvalues --  -91.88813  -8.94496  -6.63478  -6.62242  -6.61811
 Alpha  occ. eigenvalues --   -1.11662  -0.79481  -0.45345  -0.39283
 Alpha virt. eigenvalues --    0.23865   0.26498   0.37646   0.45050   0.52504
 Alpha virt. eigenvalues --    0.52611   0.86044   0.88279   0.95260   0.99475
 Alpha virt. eigenvalues --    0.99490   1.59101   1.64743   1.90099   1.95211

 Mulliken charges:
               1
     1  S    0.053383
     2  H   -0.026691
     3  H   -0.026691
 Sum of Mulliken charges =   0.00000

 Dipole moment (field-independent basis, Debye):
    X=              0.0000    Y=              0.0000    Z=             -1.6705  Tot=              1.6705
 Quadrupole moment (field-independent basis, Debye-Ang):
   XX=            -15.5692   YY=            -11.2484   ZZ=            -14.3613
   XY=              0.0000   XZ=              0.0000   YZ=              0.0000

 Normal termination of Gaussian 09 at Tue Sep 30 07:27:52 2014.
