 Gaussian 09, Revision D.01,
 Gaussian 09:  ES64L-G09RevD.01 24-Apr-2013

 -----------------
 #RHF 6-31G(d',p')
 -----------------

 -------------------
 H2S.r1.50theta105.0
 -------------------
 Symbolic Z-matrix:
 Charge =  0 Multiplicity = 1

                         Standard orientation:
 ---------------------------------------------------------------------
 Center     Atomic      Atomic             Coordinates (Angstroms)
 Number     Number       Type             X           Y           Z
 ---------------------------------------------------------------------
      1         16           0        0.000000    0.000000    0.101460
      2          1           0        0.000000    1.190030   -0.811682
      3          1           0        0.000000   -1.190030   -0.811682
 ---------------------------------------------------------------------

 SCF Done:  E(RHF) =  -398.648052911     A.U. after   10 cycles

 The electronic state is 1-A1.
 Alpha  occ. eigenvalues --  -91.97659  -8.98123  -6.66371  -6.66265  -6.66060
 Alpha  occ. eigenvalues --   -0.94452  -0.56662  -0.46726  -0.38319
 Alpha virt. eigenvalues --    0.13767   0.14978   0.49087   0.49849   0.51942
 Alpha virt. eigenvalues --    0.53475   0.91623   0.91792   0.94783   0.95767
 Alpha virt. eigenvalues --    0.98916   1.18698   1.29503   1.55009   1.63712

 Mulliken charges:
               1
     1  S   -0.099022
     2  H    0.049511
     3  H    0.049511
 Sum of Mulliken charges =   0.00000

 Dipole moment (field-independent basis, Debye):
    X=              0.0000    Y=              0.0000    Z=             -1.3128  Tot=              1.3128
 Quadrupole moment (field-independent basis, Debye-Ang):
   XX=            -17.0775   YY=            -11.7722   ZZ=            -14.3083
   XY=              0.0000   XZ=              0.0000   YZ=              0.0000

 Normal termination of Gaussian 09 at Tue Sep 30 07:39:02 2014.
