 Gaussian 09, Revision D.01,
 Gaussian 09:  ES64L-G09RevD.01 24-Apr-2013

 -----------------
 #RHF 6-31G(d',p')
 -----------------

 ------------------
 H2S.r1.55theta80.0
 ------------------
 Symbolic Z-matrix:
 Charge =  0 Multiplicity = 1

                         Standard orientation:
 ---------------------------------------------------------------------
 Center     Atomic      Atomic             Coordinates (Angstroms)
 Number     Number       Type             X           Y           Z
 ---------------------------------------------------------------------
      1         16           0        0.000000    0.000000    0.131930
      2          1           0        0.000000    0.996321   -1.055439
      3          1           0        0.000000   -0.996321   -1.055439
 ---------------------------------------------------------------------

 SCF Done:  E(RHF) =  -398.634642440     A.U. after   10 cycles

 The electronic state is 1-A1.
 Alpha  occ. eigenvalues --  -91.98522  -8.98844  -6.67046  -6.66976  -6.66733
 Alpha  occ. eigenvalues --   -0.93989  -0.51263  -0.50046  -0.38565
 Alpha virt. eigenvalues --    0.10871   0.14738   0.49452   0.50684   0.53272
 Alpha virt. eigenvalues --    0.54317   0.89756   0.91303   0.95303   0.96824
 Alpha virt. eigenvalues --    0.98164   1.17561   1.21771   1.59596   1.63865

 Mulliken charges:
               1
     1  S   -0.083322
     2  H    0.041661
     3  H    0.041661
 Sum of Mulliken charges =   0.00000

 Dipole moment (field-independent basis, Debye):
    X=              0.0000    Y=              0.0000    Z=             -1.2199  Tot=              1.2199
 Quadrupole moment (field-independent basis, Debye-Ang):
   XX=            -17.1782   YY=            -13.2088   ZZ=            -13.1565
   XY=              0.0000   XZ=              0.0000   YZ=              0.0000

 Normal termination of Gaussian 09 at Tue Sep 30 07:39:47 2014.
