 Gaussian 09, Revision D.01,
 Gaussian 09:  ES64L-G09RevD.01 24-Apr-2013

 -----------------
 #RHF 6-31G(d',p')
 -----------------

 -------------------
 H2S.r0.75theta147.0
 -------------------
 Symbolic Z-matrix:
 Charge =  0 Multiplicity = 1

                         Standard orientation:
 ---------------------------------------------------------------------
 Center     Atomic      Atomic             Coordinates (Angstroms)
 Number     Number       Type             X           Y           Z
 ---------------------------------------------------------------------
      1         16           0        0.000000    0.000000    0.023668
      2          1           0        0.000000    0.719115   -0.189344
      3          1           0        0.000000   -0.719115   -0.189344
 ---------------------------------------------------------------------

 SCF Done:  E(RHF) =  -397.414659451     A.U. after   10 cycles

 The electronic state is 1-A1.
 Alpha  occ. eigenvalues --  -91.87158  -8.98835  -6.69897  -6.64824  -6.64340
 Alpha  occ. eigenvalues --   -1.19418  -0.88319  -0.43120  -0.40680
 Alpha virt. eigenvalues --    0.19233   0.26011   0.43268   0.51200   0.51383
 Alpha virt. eigenvalues --    0.53591   0.82886   0.84665   0.96544   1.00579
 Alpha virt. eigenvalues --    1.00638   1.76906   1.86317   1.94882   2.28136

 Mulliken charges:
               1
     1  S    0.409181
     2  H   -0.204591
     3  H   -0.204591
 Sum of Mulliken charges =   0.00000

 Dipole moment (field-independent basis, Debye):
    X=              0.0000    Y=              0.0000    Z=             -1.4239  Tot=              1.4239
 Quadrupole moment (field-independent basis, Debye-Ang):
   XX=            -14.8621   YY=            -11.4284   ZZ=            -14.3497
   XY=              0.0000   XZ=              0.0000   YZ=              0.0000

 Normal termination of Gaussian 09 at Tue Sep 30 07:24:00 2014.
