 Gaussian 09, Revision D.01,
 Gaussian 09:  ES64L-G09RevD.01 24-Apr-2013

 -----------------
 #RHF 6-31G(d',p')
 -----------------

 -------------------
 H2S.r1.10theta124.0
 -------------------
 Symbolic Z-matrix:
 Charge =  0 Multiplicity = 1

                         Standard orientation:
 ---------------------------------------------------------------------
 Center     Atomic      Atomic             Coordinates (Angstroms)
 Number     Number       Type             X           Y           Z
 ---------------------------------------------------------------------
      1         16           0        0.000000    0.000000    0.057380
      2          1           0        0.000000    0.971242   -0.459039
      3          1           0        0.000000   -0.971242   -0.459039
 ---------------------------------------------------------------------

 SCF Done:  E(RHF) =  -398.563735470     A.U. after   10 cycles

 The electronic state is 1-A1.
 Alpha  occ. eigenvalues --  -91.91376  -8.94620  -6.63216  -6.62683  -6.62424
 Alpha  occ. eigenvalues --   -1.05570  -0.73110  -0.45377  -0.38671
 Alpha virt. eigenvalues --    0.22019   0.25865   0.38740   0.44475   0.52912
 Alpha virt. eigenvalues --    0.53224   0.86780   0.88973   0.95040   0.98788
 Alpha virt. eigenvalues --    0.99229   1.49258   1.50783   1.80946   1.81720

 Mulliken charges:
               1
     1  S   -0.071324
     2  H    0.035662
     3  H    0.035662
 Sum of Mulliken charges =   0.00000

 Dipole moment (field-independent basis, Debye):
    X=              0.0000    Y=              0.0000    Z=             -1.6504  Tot=              1.6504
 Quadrupole moment (field-independent basis, Debye-Ang):
   XX=            -16.0336   YY=            -11.1386   ZZ=            -14.5750
   XY=              0.0000   XZ=              0.0000   YZ=              0.0000

 Normal termination of Gaussian 09 at Tue Sep 30 07:30:55 2014.
