 Gaussian 09, Revision D.01,
 Gaussian 09:  ES64L-G09RevD.01 24-Apr-2013

 -----------------
 #RHF 6-31G(d',p')
 -----------------

 -------------------
 H2S.r0.70theta106.0
 -------------------
 Symbolic Z-matrix:
 Charge =  0 Multiplicity = 1

                         Standard orientation:
 ---------------------------------------------------------------------
 Center     Atomic      Atomic             Coordinates (Angstroms)
 Number     Number       Type             X           Y           Z
 ---------------------------------------------------------------------
      1         16           0        0.000000    0.000000    0.046808
      2          1           0        0.000000    0.559045   -0.374463
      3          1           0        0.000000   -0.559045   -0.374463
 ---------------------------------------------------------------------

 SCF Done:  E(RHF) =  -397.063217657     A.U. after   10 cycles

 The electronic state is 1-A1.
 Alpha  occ. eigenvalues --  -91.86816  -9.00300  -6.70100  -6.67553  -6.64745
 Alpha  occ. eigenvalues --   -1.22355  -0.81606  -0.50036  -0.40495
 Alpha virt. eigenvalues --    0.22278   0.23514   0.49334   0.50112   0.51337
 Alpha virt. eigenvalues --    0.54625   0.86926   0.90296   0.90593   0.96821
 Alpha virt. eigenvalues --    1.02335   1.95530   1.96555   2.12421   2.18691

 Mulliken charges:
               1
     1  S    0.503861
     2  H   -0.251930
     3  H   -0.251930
 Sum of Mulliken charges =   0.00000

 Dipole moment (field-independent basis, Debye):
    X=              0.0000    Y=              0.0000    Z=             -1.3910  Tot=              1.3910
 Quadrupole moment (field-independent basis, Debye-Ang):
   XX=            -14.8634   YY=            -11.6683   ZZ=            -13.3582
   XY=              0.0000   XZ=              0.0000   YZ=              0.0000

 Normal termination of Gaussian 09 at Tue Sep 30 07:22:31 2014.
