 Gaussian 09, Revision D.01,
 Gaussian 09:  ES64L-G09RevD.01 24-Apr-2013

 -----------------
 #RHF 6-31G(d',p')
 -----------------

 -------------------
 H2S.r0.60theta140.0
 -------------------
 Symbolic Z-matrix:
 Charge =  0 Multiplicity = 1

                         Standard orientation:
 ---------------------------------------------------------------------
 Center     Atomic      Atomic             Coordinates (Angstroms)
 Number     Number       Type             X           Y           Z
 ---------------------------------------------------------------------
      1         16           0        0.000000    0.000000    0.022801
      2          1           0        0.000000    0.563816   -0.182411
      3          1           0        0.000000   -0.563816   -0.182411
 ---------------------------------------------------------------------

 SCF Done:  E(RHF) =  -395.829556672     A.U. after   10 cycles

 The electronic state is 1-A1.
 Alpha  occ. eigenvalues --  -91.92414  -9.11304  -6.86136  -6.74559  -6.72984
 Alpha  occ. eigenvalues --   -1.22763  -0.87899  -0.45158  -0.41992
 Alpha virt. eigenvalues --    0.18339   0.24058   0.49738   0.49833   0.55017
 Alpha virt. eigenvalues --    0.59426   0.81980   0.86817   0.93452   0.98945
 Alpha virt. eigenvalues --    0.99050   1.99304   2.07749   2.09510   2.36666

 Mulliken charges:
               1
     1  S    0.806779
     2  H   -0.403389
     3  H   -0.403389
 Sum of Mulliken charges =   0.00000

 Dipole moment (field-independent basis, Debye):
    X=              0.0000    Y=              0.0000    Z=             -1.3364  Tot=              1.3364
 Quadrupole moment (field-independent basis, Debye-Ang):
   XX=            -14.3854   YY=            -11.6993   ZZ=            -13.8119
   XY=              0.0000   XZ=              0.0000   YZ=              0.0000

 Normal termination of Gaussian 09 at Tue Sep 30 07:20:51 2014.
