 Gaussian 09, Revision D.01,
 Gaussian 09:  ES64L-G09RevD.01 24-Apr-2013

 -----------------
 #RHF 6-31G(d',p')
 -----------------

 -------------------
 H2S.r1.75theta149.0
 -------------------
 Symbolic Z-matrix:
 Charge =  0 Multiplicity = 1

                         Standard orientation:
 ---------------------------------------------------------------------
 Center     Atomic      Atomic             Coordinates (Angstroms)
 Number     Number       Type             X           Y           Z
 ---------------------------------------------------------------------
      1         16           0        0.000000    0.000000    0.051963
      2          1           0        0.000000    1.686353   -0.415704
      3          1           0        0.000000   -1.686353   -0.415704
 ---------------------------------------------------------------------

 SCF Done:  E(RHF) =  -398.506839322     A.U. after   11 cycles

 The electronic state is 1-A1.
 Alpha  occ. eigenvalues --  -91.98714  -8.98878  -6.67074  -6.66977  -6.66741
 Alpha  occ. eigenvalues --   -0.90406  -0.53145  -0.38788  -0.37889
 Alpha virt. eigenvalues --   -0.02198   0.15044   0.48032   0.53551   0.53562
 Alpha virt. eigenvalues --    0.58568   0.88044   0.96775   0.97952   1.03669
 Alpha virt. eigenvalues --    1.03899   1.04521   1.10003   1.55047   1.55053

 Mulliken charges:
               1
     1  S   -0.239547
     2  H    0.119774
     3  H    0.119774
 Sum of Mulliken charges =   0.00000

 Dipole moment (field-independent basis, Debye):
    X=              0.0000    Y=              0.0000    Z=             -1.0673  Tot=              1.0673
 Quadrupole moment (field-independent basis, Debye-Ang):
   XX=            -17.7364   YY=             -9.1944   ZZ=            -16.1002
   XY=              0.0000   XZ=              0.0000   YZ=              0.0000

 Normal termination of Gaussian 09 at Tue Sep 30 07:44:47 2014.
