 Gaussian 09, Revision D.01,
 Gaussian 09:  ES64L-G09RevD.01 24-Apr-2013

 -----------------
 #RHF 6-31G(d',p')
 -----------------

 -------------------
 H2S.r1.15theta147.0
 -------------------
 Symbolic Z-matrix:
 Charge =  0 Multiplicity = 1

                         Standard orientation:
 ---------------------------------------------------------------------
 Center     Atomic      Atomic             Coordinates (Angstroms)
 Number     Number       Type             X           Y           Z
 ---------------------------------------------------------------------
      1         16           0        0.000000    0.000000    0.036291
      2          1           0        0.000000    1.102643   -0.290327
      3          1           0        0.000000   -1.102643   -0.290327
 ---------------------------------------------------------------------

 SCF Done:  E(RHF) =  -398.555985579     A.U. after   10 cycles

 The electronic state is 1-A1.
 Alpha  occ. eigenvalues --  -91.92081  -8.94891  -6.63542  -6.63002  -6.62892
 Alpha  occ. eigenvalues --   -1.03514  -0.73392  -0.41239  -0.38499
 Alpha virt. eigenvalues --    0.14011   0.32097   0.39338   0.43658   0.53312
 Alpha virt. eigenvalues --    0.53564   0.82896   0.84774   0.99054   1.02109
 Alpha virt. eigenvalues --    1.02353   1.32733   1.51056   1.67222   1.87658

 Mulliken charges:
               1
     1  S   -0.179571
     2  H    0.089785
     3  H    0.089785
 Sum of Mulliken charges =   0.00000

 Dipole moment (field-independent basis, Debye):
    X=              0.0000    Y=              0.0000    Z=             -1.5669  Tot=              1.5669
 Quadrupole moment (field-independent basis, Debye-Ang):
   XX=            -16.2279   YY=            -10.3392   ZZ=            -15.4614
   XY=              0.0000   XZ=              0.0000   YZ=              0.0000

 Normal termination of Gaussian 09 at Tue Sep 30 07:32:13 2014.
