 Gaussian 09, Revision D.01,
 Gaussian 09:  ES64L-G09RevD.01 24-Apr-2013

 -----------------
 #RHF 6-31G(d',p')
 -----------------

 ------------------
 H2S.r1.25theta98.0
 ------------------
 Symbolic Z-matrix:
 Charge =  0 Multiplicity = 1

                         Standard orientation:
 ---------------------------------------------------------------------
 Center     Atomic      Atomic             Coordinates (Angstroms)
 Number     Number       Type             X           Y           Z
 ---------------------------------------------------------------------
      1         16           0        0.000000    0.000000    0.091119
      2          1           0        0.000000    0.943387   -0.728954
      3          1           0        0.000000   -0.943387   -0.728954
 ---------------------------------------------------------------------

 SCF Done:  E(RHF) =  -398.667692027     A.U. after   10 cycles

 The electronic state is 1-A1.
 Alpha  occ. eigenvalues --  -91.94158  -8.95827  -6.64159  -6.64009  -6.63745
 Alpha  occ. eigenvalues --   -1.00779  -0.62990  -0.49499  -0.38409
 Alpha virt. eigenvalues --    0.19496   0.23555   0.44792   0.47015   0.51873
 Alpha virt. eigenvalues --    0.53532   0.86386   0.89887   0.91790   0.95715
 Alpha virt. eigenvalues --    1.00850   1.35252   1.54163   1.64502   1.74619

 Mulliken charges:
               1
     1  S   -0.054171
     2  H    0.027086
     3  H    0.027086
 Sum of Mulliken charges =   0.00000

 Dipole moment (field-independent basis, Debye):
    X=              0.0000    Y=              0.0000    Z=             -1.3933  Tot=              1.3933
 Quadrupole moment (field-independent basis, Debye-Ang):
   XX=            -16.4419   YY=            -12.0203   ZZ=            -13.8741
   XY=              0.0000   XZ=              0.0000   YZ=              0.0000

 Normal termination of Gaussian 09 at Tue Sep 30 07:33:44 2014.
