 Gaussian 09, Revision D.01,
 Gaussian 09:  ES64L-G09RevD.01 24-Apr-2013

 -----------------
 #RHF 6-31G(d',p')
 -----------------

 -------------------
 H2S.r1.55theta156.0
 -------------------
 Symbolic Z-matrix:
 Charge =  0 Multiplicity = 1

                         Standard orientation:
 ---------------------------------------------------------------------
 Center     Atomic      Atomic             Coordinates (Angstroms)
 Number     Number       Type             X           Y           Z
 ---------------------------------------------------------------------
      1         16           0        0.000000    0.000000    0.035807
      2          1           0        0.000000    1.516129   -0.286456
      3          1           0        0.000000   -1.516129   -0.286456
 ---------------------------------------------------------------------

 SCF Done:  E(RHF) =  -398.546917071     A.U. after   11 cycles

 The electronic state is 1-A1.
 Alpha  occ. eigenvalues --  -91.96188  -8.96759  -6.65092  -6.64953  -6.64805
 Alpha  occ. eigenvalues --   -0.92586  -0.58883  -0.38327  -0.37276
 Alpha virt. eigenvalues --    0.00201   0.23060   0.45661   0.54166   0.54448
 Alpha virt. eigenvalues --    0.55433   0.84040   0.92719   0.98234   1.04591
 Alpha virt. eigenvalues --    1.04623   1.04728   1.22900   1.55328   1.57255

 Mulliken charges:
               1
     1  S   -0.323153
     2  H    0.161576
     3  H    0.161576
 Sum of Mulliken charges =   0.00000

 Dipole moment (field-independent basis, Debye):
    X=              0.0000    Y=              0.0000    Z=             -1.2931  Tot=              1.2931
 Quadrupole moment (field-independent basis, Debye-Ang):
   XX=            -17.4504   YY=             -8.5647   ZZ=            -16.4154
   XY=              0.0000   XZ=              0.0000   YZ=              0.0000

 Normal termination of Gaussian 09 at Tue Sep 30 07:40:39 2014.
