 Gaussian 09, Revision D.01,
 Gaussian 09:  ES64L-G09RevD.01 24-Apr-2013

 -----------------
 #RHF 6-31G(d',p')
 -----------------

 -------------------
 H2S.r0.75theta131.0
 -------------------
 Symbolic Z-matrix:
 Charge =  0 Multiplicity = 1

                         Standard orientation:
 ---------------------------------------------------------------------
 Center     Atomic      Atomic             Coordinates (Angstroms)
 Number     Number       Type             X           Y           Z
 ---------------------------------------------------------------------
      1         16           0        0.000000    0.000000    0.034558
      2          1           0        0.000000    0.682471   -0.276462
      3          1           0        0.000000   -0.682471   -0.276462
 ---------------------------------------------------------------------

 SCF Done:  E(RHF) =  -397.442527428     A.U. after   10 cycles

 The electronic state is 1-A1.
 Alpha  occ. eigenvalues --  -91.86792  -8.98315  -6.68839  -6.64783  -6.63763
 Alpha  occ. eigenvalues --   -1.19659  -0.86424  -0.45436  -0.40447
 Alpha virt. eigenvalues --    0.21360   0.25201   0.44546   0.49996   0.51400
 Alpha virt. eigenvalues --    0.51433   0.86471   0.86952   0.95059   0.99553
 Alpha virt. eigenvalues --    0.99720   1.80997   1.87629   2.04238   2.13278

 Mulliken charges:
               1
     1  S    0.430539
     2  H   -0.215270
     3  H   -0.215270
 Sum of Mulliken charges =   0.00000

 Dipole moment (field-independent basis, Debye):
    X=              0.0000    Y=              0.0000    Z=             -1.5845  Tot=              1.5845
 Quadrupole moment (field-independent basis, Debye-Ang):
   XX=            -14.9292   YY=            -11.4712   ZZ=            -14.0076
   XY=              0.0000   XZ=              0.0000   YZ=              0.0000

 Normal termination of Gaussian 09 at Tue Sep 30 07:23:49 2014.
