 Gaussian 09, Revision D.01,
 Gaussian 09:  ES64L-G09RevD.01 24-Apr-2013

 -----------------
 #RHF 6-31G(d',p')
 -----------------

 -------------------
 H2S.r1.10theta156.0
 -------------------
 Symbolic Z-matrix:
 Charge =  0 Multiplicity = 1

                         Standard orientation:
 ---------------------------------------------------------------------
 Center     Atomic      Atomic             Coordinates (Angstroms)
 Number     Number       Type             X           Y           Z
 ---------------------------------------------------------------------
      1         16           0        0.000000    0.000000    0.025411
      2          1           0        0.000000    1.075962   -0.203291
      3          1           0        0.000000   -1.075962   -0.203291
 ---------------------------------------------------------------------

 SCF Done:  E(RHF) =  -398.499183093     A.U. after   10 cycles

 The electronic state is 1-A1.
 Alpha  occ. eigenvalues --  -91.91306  -8.94767  -6.63564  -6.62817  -6.62747
 Alpha  occ. eigenvalues --   -1.05308  -0.75965  -0.40205  -0.38709
 Alpha virt. eigenvalues --    0.13484   0.35931   0.38655   0.43853   0.53071
 Alpha virt. eigenvalues --    0.53338   0.80572   0.83681   0.96564   1.02922
 Alpha virt. eigenvalues --    1.02993   1.37434   1.56889   1.66346   1.85331

 Mulliken charges:
               1
     1  S   -0.205730
     2  H    0.102865
     3  H    0.102865
 Sum of Mulliken charges =   0.00000

 Dipole moment (field-independent basis, Debye):
    X=              0.0000    Y=              0.0000    Z=             -1.3465  Tot=              1.3465
 Quadrupole moment (field-independent basis, Debye-Ang):
   XX=            -16.0689   YY=            -10.2518   ZZ=            -15.6291
   XY=              0.0000   XZ=              0.0000   YZ=              0.0000

 Normal termination of Gaussian 09 at Tue Sep 30 07:31:17 2014.
