 Gaussian 09, Revision D.01,
 Gaussian 09:  ES64L-G09RevD.01 24-Apr-2013

 -----------------
 #RHF 6-31G(d',p')
 -----------------

 ------------------
 H2S.r1.60theta88.0
 ------------------
 Symbolic Z-matrix:
 Charge =  0 Multiplicity = 1

                         Standard orientation:
 ---------------------------------------------------------------------
 Center     Atomic      Atomic             Coordinates (Angstroms)
 Number     Number       Type             X           Y           Z
 ---------------------------------------------------------------------
      1         16           0        0.000000    0.000000    0.127883
      2          1           0        0.000000    1.111453   -1.023061
      3          1           0        0.000000   -1.111453   -1.023061
 ---------------------------------------------------------------------

 SCF Done:  E(RHF) =  -398.623473367     A.U. after   10 cycles

 The electronic state is 1-A1.
 Alpha  occ. eigenvalues --  -91.98988  -8.99196  -6.67399  -6.67315  -6.67080
 Alpha  occ. eigenvalues --   -0.93045  -0.51598  -0.48326  -0.38549
 Alpha virt. eigenvalues --    0.10460   0.12905   0.49605   0.50747   0.53227
 Alpha virt. eigenvalues --    0.55674   0.90385   0.92516   0.94953   0.98084
 Alpha virt. eigenvalues --    0.98392   1.14180   1.21060   1.58454   1.58632

 Mulliken charges:
               1
     1  S   -0.097854
     2  H    0.048927
     3  H    0.048927
 Sum of Mulliken charges =   0.00000

 Dipole moment (field-independent basis, Debye):
    X=              0.0000    Y=              0.0000    Z=             -1.2152  Tot=              1.2152
 Quadrupole moment (field-independent basis, Debye-Ang):
   XX=            -17.2830   YY=            -12.7638   ZZ=            -13.5256
   XY=              0.0000   XZ=              0.0000   YZ=              0.0000

 Normal termination of Gaussian 09 at Tue Sep 30 07:40:55 2014.
