 Gaussian 09, Revision D.01,
 Gaussian 09:  ES64L-G09RevD.01 24-Apr-2013

 -----------------
 #RHF 6-31G(d',p')
 -----------------

 -------------------
 H2S.r0.65theta111.0
 -------------------
 Symbolic Z-matrix:
 Charge =  0 Multiplicity = 1

                         Standard orientation:
 ---------------------------------------------------------------------
 Center     Atomic      Atomic             Coordinates (Angstroms)
 Number     Number       Type             X           Y           Z
 ---------------------------------------------------------------------
      1         16           0        0.000000    0.000000    0.040907
      2          1           0        0.000000    0.535682   -0.327257
      3          1           0        0.000000   -0.535682   -0.327257
 ---------------------------------------------------------------------

 SCF Done:  E(RHF) =  -396.537889632     A.U. after   10 cycles

 The electronic state is 1-A1.
 Alpha  occ. eigenvalues --  -91.88410  -9.04412  -6.75207  -6.70874  -6.67607
 Alpha  occ. eigenvalues --   -1.23145  -0.83223  -0.49335  -0.40996
 Alpha virt. eigenvalues --    0.20919   0.23467   0.49571   0.50801   0.52102
 Alpha virt. eigenvalues --    0.57625   0.87545   0.90159   0.90409   0.97287
 Alpha virt. eigenvalues --    0.99946   1.99130   2.05408   2.17291   2.24305

 Mulliken charges:
               1
     1  S    0.635855
     2  H   -0.317927
     3  H   -0.317927
 Sum of Mulliken charges =   0.00000

 Dipole moment (field-independent basis, Debye):
    X=              0.0000    Y=              0.0000    Z=             -1.3763  Tot=              1.3763
 Quadrupole moment (field-independent basis, Debye-Ang):
   XX=            -14.6807   YY=            -11.6604   ZZ=            -13.3911
   XY=              0.0000   XZ=              0.0000   YZ=              0.0000

 Normal termination of Gaussian 09 at Tue Sep 30 07:21:33 2014.
