 Gaussian 09, Revision D.01,
 Gaussian 09:  ES64L-G09RevD.01 24-Apr-2013

 -----------------
 #RHF 6-31G(d',p')
 -----------------

 -------------------
 H2S.r1.80theta131.0
 -------------------
 Symbolic Z-matrix:
 Charge =  0 Multiplicity = 1

                         Standard orientation:
 ---------------------------------------------------------------------
 Center     Atomic      Atomic             Coordinates (Angstroms)
 Number     Number       Type             X           Y           Z
 ---------------------------------------------------------------------
      1         16           0        0.000000    0.000000    0.082939
      2          1           0        0.000000    1.637930   -0.663509
      3          1           0        0.000000   -1.637930   -0.663509
 ---------------------------------------------------------------------

 SCF Done:  E(RHF) =  -398.524427256     A.U. after   11 cycles

 The electronic state is 1-A1.
 Alpha  occ. eigenvalues --  -91.99897  -8.99923  -6.68085  -6.68008  -6.67746
 Alpha  occ. eigenvalues --   -0.90396  -0.51312  -0.41015  -0.38377
 Alpha virt. eigenvalues --    0.00544   0.11178   0.49323   0.53165   0.53277
 Alpha virt. eigenvalues --    0.55462   0.91602   0.95591   0.99160   1.01978
 Alpha virt. eigenvalues --    1.02813   1.06910   1.07145   1.53907   1.55179

 Mulliken charges:
               1
     1  S   -0.170937
     2  H    0.085468
     3  H    0.085468
 Sum of Mulliken charges =   0.00000

 Dipole moment (field-independent basis, Debye):
    X=              0.0000    Y=              0.0000    Z=             -1.0615  Tot=              1.0615
 Quadrupole moment (field-independent basis, Debye-Ang):
   XX=            -17.7187   YY=            -10.2497   ZZ=            -15.4602
   XY=              0.0000   XZ=              0.0000   YZ=              0.0000

 Normal termination of Gaussian 09 at Tue Sep 30 07:45:36 2014.
