 Gaussian 09, Revision D.01,
 Gaussian 09:  ES64L-G09RevD.01 24-Apr-2013

 -----------------
 #RHF 6-31G(d',p')
 -----------------

 -------------------
 H2S.r1.55theta149.0
 -------------------
 Symbolic Z-matrix:
 Charge =  0 Multiplicity = 1

                         Standard orientation:
 ---------------------------------------------------------------------
 Center     Atomic      Atomic             Coordinates (Angstroms)
 Number     Number       Type             X           Y           Z
 ---------------------------------------------------------------------
      1         16           0        0.000000    0.000000    0.046024
      2          1           0        0.000000    1.493627   -0.368195
      3          1           0        0.000000   -1.493627   -0.368195
 ---------------------------------------------------------------------

 SCF Done:  E(RHF) =  -398.563966716     A.U. after   10 cycles

 The electronic state is 1-A1.
 Alpha  occ. eigenvalues --  -91.96717  -8.97241  -6.65539  -6.65415  -6.65244
 Alpha  occ. eigenvalues --   -0.92853  -0.58739  -0.39474  -0.37587
 Alpha virt. eigenvalues --    0.01832   0.21787   0.45763   0.53415   0.53943
 Alpha virt. eigenvalues --    0.54068   0.85021   0.92922   0.98087   1.03709
 Alpha virt. eigenvalues --    1.03961   1.07655   1.21852   1.56595   1.59745

 Mulliken charges:
               1
     1  S   -0.258917
     2  H    0.129459
     3  H    0.129459
 Sum of Mulliken charges =   0.00000

 Dipole moment (field-independent basis, Debye):
    X=              0.0000    Y=              0.0000    Z=             -1.3466  Tot=              1.3466
 Quadrupole moment (field-independent basis, Debye-Ang):
   XX=            -17.3804   YY=             -9.2076   ZZ=            -16.0991
   XY=              0.0000   XZ=              0.0000   YZ=              0.0000

 Normal termination of Gaussian 09 at Tue Sep 30 07:40:35 2014.
