 Gaussian 09, Revision D.01,
 Gaussian 09:  ES64L-G09RevD.01 24-Apr-2013

 -----------------
 #RHF 6-31G(d',p')
 -----------------

 ------------------
 H2S.r0.80theta96.0
 ------------------
 Symbolic Z-matrix:
 Charge =  0 Multiplicity = 1

                         Standard orientation:
 ---------------------------------------------------------------------
 Center     Atomic      Atomic             Coordinates (Angstroms)
 Number     Number       Type             X           Y           Z
 ---------------------------------------------------------------------
      1         16           0        0.000000    0.000000    0.059478
      2          1           0        0.000000    0.594516   -0.475826
      3          1           0        0.000000   -0.594516   -0.475826
 ---------------------------------------------------------------------

 SCF Done:  E(RHF) =  -397.780646710     A.U. after   10 cycles

 The electronic state is 1-A1.
 Alpha  occ. eigenvalues --  -91.86445  -8.95886  -6.64640  -6.63960  -6.61932
 Alpha  occ. eigenvalues --   -1.19638  -0.76670  -0.51627  -0.39765
 Alpha virt. eigenvalues --    0.23320   0.25634   0.45470   0.47732   0.52105
 Alpha virt. eigenvalues --    0.52638   0.84470   0.88831   0.91701   0.95329
 Alpha virt. eigenvalues --    1.06850   1.80518   1.87108   2.03331   2.13570

 Mulliken charges:
               1
     1  S    0.282003
     2  H   -0.141001
     3  H   -0.141001
 Sum of Mulliken charges =   0.00000

 Dipole moment (field-independent basis, Debye):
    X=              0.0000    Y=              0.0000    Z=             -1.3548  Tot=              1.3548
 Quadrupole moment (field-independent basis, Debye-Ang):
   XX=            -15.2003   YY=            -11.7943   ZZ=            -13.2469
   XY=              0.0000   XZ=              0.0000   YZ=              0.0000

 Normal termination of Gaussian 09 at Tue Sep 30 07:24:27 2014.
