 Gaussian 09, Revision D.01,
 Gaussian 09:  ES64L-G09RevD.01 24-Apr-2013

 -----------------
 #RHF 6-31G(d',p')
 -----------------

 ------------------
 H2S.r1.35theta96.0
 ------------------
 Symbolic Z-matrix:
 Charge =  0 Multiplicity = 1

                         Standard orientation:
 ---------------------------------------------------------------------
 Center     Atomic      Atomic             Coordinates (Angstroms)
 Number     Number       Type             X           Y           Z
 ---------------------------------------------------------------------
      1         16           0        0.000000    0.000000    0.100370
      2          1           0        0.000000    1.003246   -0.802957
      3          1           0        0.000000   -1.003246   -0.802957
 ---------------------------------------------------------------------

 SCF Done:  E(RHF) =  -398.675502276     A.U. after    9 cycles

 The electronic state is 1-A1.
 Alpha  occ. eigenvalues --  -91.95796  -8.96834  -6.65122  -6.65003  -6.64780
 Alpha  occ. eigenvalues --   -0.97932  -0.59492  -0.49239  -0.38371
 Alpha virt. eigenvalues --    0.17171   0.20303   0.47979   0.48168   0.51407
 Alpha virt. eigenvalues --    0.53545   0.87654   0.90063   0.93298   0.96195
 Alpha virt. eigenvalues --    0.98680   1.27704   1.43677   1.61126   1.69041

 Mulliken charges:
               1
     1  S   -0.065955
     2  H    0.032977
     3  H    0.032977
 Sum of Mulliken charges =   0.00000

 Dipole moment (field-independent basis, Debye):
    X=              0.0000    Y=              0.0000    Z=             -1.3419  Tot=              1.3419
 Quadrupole moment (field-independent basis, Debye-Ang):
   XX=            -16.7041   YY=            -12.1766   ZZ=            -13.8693
   XY=              0.0000   XZ=              0.0000   YZ=              0.0000

 Normal termination of Gaussian 09 at Tue Sep 30 07:35:48 2014.
