 Gaussian 09, Revision D.01,
 Gaussian 09:  ES64L-G09RevD.01 24-Apr-2013

 -----------------
 #RHF 6-31G(d',p')
 -----------------

 -------------------
 H2S.r0.60theta153.0
 -------------------
 Symbolic Z-matrix:
 Charge =  0 Multiplicity = 1

                         Standard orientation:
 ---------------------------------------------------------------------
 Center     Atomic      Atomic             Coordinates (Angstroms)
 Number     Number       Type             X           Y           Z
 ---------------------------------------------------------------------
      1         16           0        0.000000    0.000000    0.015563
      2          1           0        0.000000    0.583422   -0.124504
      3          1           0        0.000000   -0.583422   -0.124504
 ---------------------------------------------------------------------

 SCF Done:  E(RHF) =  -395.809530830     A.U. after   10 cycles

 The electronic state is 1-A1.
 Alpha  occ. eigenvalues --  -91.92832  -9.11771  -6.87569  -6.74280  -6.73539
 Alpha  occ. eigenvalues --   -1.22679  -0.88950  -0.43699  -0.42176
 Alpha virt. eigenvalues --    0.17333   0.24166   0.49672   0.49724   0.53168
 Alpha virt. eigenvalues --    0.65016   0.79081   0.85627   0.93807   0.99426
 Alpha virt. eigenvalues --    0.99454   2.00690   2.03226   2.04162   2.47301

 Mulliken charges:
               1
     1  S    0.798702
     2  H   -0.399351
     3  H   -0.399351
 Sum of Mulliken charges =   0.00000

 Dipole moment (field-independent basis, Debye):
    X=              0.0000    Y=              0.0000    Z=             -1.1111  Tot=              1.1111
 Quadrupole moment (field-independent basis, Debye-Ang):
   XX=            -14.3206   YY=            -11.7302   ZZ=            -14.0102
   XY=              0.0000   XZ=              0.0000   YZ=              0.0000

 Normal termination of Gaussian 09 at Tue Sep 30 07:21:00 2014.
