 Gaussian 09, Revision D.01,
 Gaussian 09:  ES64L-G09RevD.01 24-Apr-2013

 -----------------
 #RHF 6-31G(d',p')
 -----------------

 ------------------
 H2S.r1.25theta76.0
 ------------------
 Symbolic Z-matrix:
 Charge =  0 Multiplicity = 1

                         Standard orientation:
 ---------------------------------------------------------------------
 Center     Atomic      Atomic             Coordinates (Angstroms)
 Number     Number       Type             X           Y           Z
 ---------------------------------------------------------------------
      1         16           0        0.000000    0.000000    0.109446
      2          1           0        0.000000    0.769577   -0.875568
      3          1           0        0.000000   -0.769577   -0.875568
 ---------------------------------------------------------------------

 SCF Done:  E(RHF) =  -398.655908306     A.U. after   10 cycles

 The electronic state is 1-A1.
 Alpha  occ. eigenvalues --  -91.94315  -8.95968  -6.64212  -6.64201  -6.63842
 Alpha  occ. eigenvalues --   -1.01778  -0.57349  -0.53543  -0.38536
 Alpha virt. eigenvalues --    0.17401   0.24369   0.44258   0.48682   0.50823
 Alpha virt. eigenvalues --    0.53478   0.85037   0.87624   0.91963   0.95625
 Alpha virt. eigenvalues --    1.02584   1.37691   1.44271   1.73113   1.73833

 Mulliken charges:
               1
     1  S   -0.028035
     2  H    0.014017
     3  H    0.014017
 Sum of Mulliken charges =   0.00000

 Dipole moment (field-independent basis, Debye):
    X=              0.0000    Y=              0.0000    Z=             -1.2384  Tot=              1.2384
 Quadrupole moment (field-independent basis, Debye-Ang):
   XX=            -16.4504   YY=            -12.9835   ZZ=            -13.0090
   XY=              0.0000   XZ=              0.0000   YZ=              0.0000

 Normal termination of Gaussian 09 at Tue Sep 30 07:33:29 2014.
