 Gaussian 09, Revision D.01,
 Gaussian 09:  ES64L-G09RevD.01 24-Apr-2013

 -----------------
 #RHF 6-31G(d',p')
 -----------------

 -------------------
 H2S.r0.70theta158.0
 -------------------
 Symbolic Z-matrix:
 Charge =  0 Multiplicity = 1

                         Standard orientation:
 ---------------------------------------------------------------------
 Center     Atomic      Atomic             Coordinates (Angstroms)
 Number     Number       Type             X           Y           Z
 ---------------------------------------------------------------------
      1         16           0        0.000000    0.000000    0.014841
      2          1           0        0.000000    0.687139   -0.118726
      3          1           0        0.000000   -0.687139   -0.118726
 ---------------------------------------------------------------------

 SCF Done:  E(RHF) =  -396.995012025     A.U. after   10 cycles

 The electronic state is 1-A1.
 Alpha  occ. eigenvalues --  -91.87939  -9.01854  -6.74264  -6.66776  -6.66487
 Alpha  occ. eigenvalues --   -1.20859  -0.89815  -0.42294  -0.41199
 Alpha virt. eigenvalues --    0.17677   0.25413   0.45558   0.50668   0.50812
 Alpha virt. eigenvalues --    0.61710   0.80223   0.84223   0.94639   1.00627
 Alpha virt. eigenvalues --    1.00640   1.86381   1.91672   1.94748   2.29992

 Mulliken charges:
               1
     1  S    0.509715
     2  H   -0.254857
     3  H   -0.254857
 Sum of Mulliken charges =   0.00000

 Dipole moment (field-independent basis, Debye):
    X=              0.0000    Y=              0.0000    Z=             -1.0748  Tot=              1.0748
 Quadrupole moment (field-independent basis, Debye-Ang):
   XX=            -14.6439   YY=            -11.5287   ZZ=            -14.3977
   XY=              0.0000   XZ=              0.0000   YZ=              0.0000

 Normal termination of Gaussian 09 at Tue Sep 30 07:23:06 2014.
