 Gaussian 09, Revision D.01,
 Gaussian 09:  ES64L-G09RevD.01 24-Apr-2013

 -----------------
 #RHF 6-31G(d',p')
 -----------------

 ------------------
 H2S.r1.35theta94.0
 ------------------
 Symbolic Z-matrix:
 Charge =  0 Multiplicity = 1

                         Standard orientation:
 ---------------------------------------------------------------------
 Center     Atomic      Atomic             Coordinates (Angstroms)
 Number     Number       Type             X           Y           Z
 ---------------------------------------------------------------------
      1         16           0        0.000000    0.000000    0.102300
      2          1           0        0.000000    0.987327   -0.818398
      3          1           0        0.000000   -0.987327   -0.818398
 ---------------------------------------------------------------------

 SCF Done:  E(RHF) =  -398.675628032     A.U. after   10 cycles

 The electronic state is 1-A1.
 Alpha  occ. eigenvalues --  -91.95819  -8.96855  -6.65138  -6.65024  -6.64797
 Alpha  occ. eigenvalues --   -0.97977  -0.59095  -0.49579  -0.38385
 Alpha virt. eigenvalues --    0.16917   0.20550   0.48106   0.48405   0.51300
 Alpha virt. eigenvalues --    0.53537   0.87210   0.89802   0.93585   0.95905
 Alpha virt. eigenvalues --    0.98964   1.27757   1.42972   1.62972   1.68711

 Mulliken charges:
               1
     1  S   -0.062854
     2  H    0.031427
     3  H    0.031427
 Sum of Mulliken charges =   0.00000

 Dipole moment (field-independent basis, Debye):
    X=              0.0000    Y=              0.0000    Z=             -1.3279  Tot=              1.3279
 Quadrupole moment (field-independent basis, Debye-Ang):
   XX=            -16.7029   YY=            -12.2718   ZZ=            -13.7884
   XY=              0.0000   XZ=              0.0000   YZ=              0.0000

 Normal termination of Gaussian 09 at Tue Sep 30 07:35:46 2014.
