 Gaussian 09, Revision D.01,
 Gaussian 09:  ES64L-G09RevD.01 24-Apr-2013

 -----------------
 #RHF 6-31G(d',p')
 -----------------

 -------------------
 H2S.r0.60theta158.0
 -------------------
 Symbolic Z-matrix:
 Charge =  0 Multiplicity = 1

                         Standard orientation:
 ---------------------------------------------------------------------
 Center     Atomic      Atomic             Coordinates (Angstroms)
 Number     Number       Type             X           Y           Z
 ---------------------------------------------------------------------
      1         16           0        0.000000    0.000000    0.012721
      2          1           0        0.000000    0.588976   -0.101765
      3          1           0        0.000000   -0.588976   -0.101765
 ---------------------------------------------------------------------

 SCF Done:  E(RHF) =  -395.802581712     A.U. after   10 cycles

 The electronic state is 1-A1.
 Alpha  occ. eigenvalues --  -91.92978  -9.11935  -6.88016  -6.74230  -6.73732
 Alpha  occ. eigenvalues --   -1.22666  -0.89207  -0.43265  -0.42237
 Alpha virt. eigenvalues --    0.16990   0.24146   0.49616   0.49670   0.52703
 Alpha virt. eigenvalues --    0.67973   0.78223   0.85270   0.93306   0.99528
 Alpha virt. eigenvalues --    0.99541   2.01954   2.01983   2.02630   2.45569

 Mulliken charges:
               1
     1  S    0.791276
     2  H   -0.395638
     3  H   -0.395638
 Sum of Mulliken charges =   0.00000

 Dipole moment (field-independent basis, Debye):
    X=              0.0000    Y=              0.0000    Z=             -0.9658  Tot=              0.9658
 Quadrupole moment (field-independent basis, Debye-Ang):
   XX=            -14.2967   YY=            -11.7416   ZZ=            -14.0783
   XY=              0.0000   XZ=              0.0000   YZ=              0.0000

 Normal termination of Gaussian 09 at Tue Sep 30 07:21:03 2014.
