 Gaussian 09, Revision D.01,
 Gaussian 09:  ES64L-G09RevD.01 24-Apr-2013

 -----------------
 #RHF 6-31G(d',p')
 -----------------

 ------------------
 H2S.r1.40theta70.0
 ------------------
 Symbolic Z-matrix:
 Charge =  0 Multiplicity = 1

                         Standard orientation:
 ---------------------------------------------------------------------
 Center     Atomic      Atomic             Coordinates (Angstroms)
 Number     Number       Type             X           Y           Z
 ---------------------------------------------------------------------
      1         16           0        0.000000    0.000000    0.127424
      2          1           0        0.000000    0.803007   -1.019389
      3          1           0        0.000000   -0.803007   -1.019389
 ---------------------------------------------------------------------

 SCF Done:  E(RHF) =  -398.654565790     A.U. after   10 cycles

 The electronic state is 1-A1.
 Alpha  occ. eigenvalues --  -91.96665  -8.97483  -6.65686  -6.65668  -6.65381
 Alpha  occ. eigenvalues --   -0.97594  -0.53384  -0.52153  -0.38538
 Alpha virt. eigenvalues --    0.13796   0.18952   0.48054   0.49774   0.50165
 Alpha virt. eigenvalues --    0.53442   0.88695   0.88911   0.92819   0.97843
 Alpha virt. eigenvalues --    0.97948   1.28812   1.28994   1.59371   1.66332

 Mulliken charges:
               1
     1  S   -0.052122
     2  H    0.026061
     3  H    0.026061
 Sum of Mulliken charges =   0.00000

 Dipole moment (field-independent basis, Debye):
    X=              0.0000    Y=              0.0000    Z=             -1.2364  Tot=              1.2364
 Quadrupole moment (field-independent basis, Debye-Ang):
   XX=            -16.8392   YY=            -13.5631   ZZ=            -12.7365
   XY=              0.0000   XZ=              0.0000   YZ=              0.0000

 Normal termination of Gaussian 09 at Tue Sep 30 07:36:32 2014.
