 Gaussian 09, Revision D.01,
 Gaussian 09:  ES64L-G09RevD.01 24-Apr-2013

 -----------------
 #RHF 6-31G(d',p')
 -----------------

 ------------------
 H2S.r1.65theta93.0
 ------------------
 Symbolic Z-matrix:
 Charge =  0 Multiplicity = 1

                         Standard orientation:
 ---------------------------------------------------------------------
 Center     Atomic      Atomic             Coordinates (Angstroms)
 Number     Number       Type             X           Y           Z
 ---------------------------------------------------------------------
      1         16           0        0.000000    0.000000    0.126198
      2          1           0        0.000000    1.196868   -1.009587
      3          1           0        0.000000   -1.196868   -1.009587
 ---------------------------------------------------------------------

 SCF Done:  E(RHF) =  -398.607811629     A.U. after   10 cycles

 The electronic state is 1-A1.
 Alpha  occ. eigenvalues --  -91.99411  -8.99533  -6.67728  -6.67642  -6.67404
 Alpha  occ. eigenvalues --   -0.92299  -0.51243  -0.47127  -0.38558
 Alpha virt. eigenvalues --    0.09848   0.10961   0.49566   0.51094   0.53169
 Alpha virt. eigenvalues --    0.56237   0.91043   0.93329   0.95480   0.98436
 Alpha virt. eigenvalues --    0.99465   1.11700   1.18711   1.55664   1.57448

 Mulliken charges:
               1
     1  S   -0.109012
     2  H    0.054506
     3  H    0.054506
 Sum of Mulliken charges =   0.00000

 Dipole moment (field-independent basis, Debye):
    X=              0.0000    Y=              0.0000    Z=             -1.2006  Tot=              1.2006
 Quadrupole moment (field-independent basis, Debye-Ang):
   XX=            -17.3850   YY=            -12.4768   ZZ=            -13.7524
   XY=              0.0000   XZ=              0.0000   YZ=              0.0000

 Normal termination of Gaussian 09 at Tue Sep 30 07:42:01 2014.
