 Gaussian 09, Revision D.01,
 Gaussian 09:  ES64L-G09RevD.01 24-Apr-2013

 -----------------
 #RHF 6-31G(d',p')
 -----------------

 -------------------
 H2S.r1.75theta112.0
 -------------------
 Symbolic Z-matrix:
 Charge =  0 Multiplicity = 1

                         Standard orientation:
 ---------------------------------------------------------------------
 Center     Atomic      Atomic             Coordinates (Angstroms)
 Number     Number       Type             X           Y           Z
 ---------------------------------------------------------------------
      1         16           0        0.000000    0.000000    0.108732
      2          1           0        0.000000    1.450816   -0.869856
      3          1           0        0.000000   -1.450816   -0.869856
 ---------------------------------------------------------------------

 SCF Done:  E(RHF) =  -398.564446181     A.U. after   10 cycles

 The electronic state is 1-A1.
 Alpha  occ. eigenvalues --  -91.99961  -8.99979  -6.68155  -6.68072  -6.67821
 Alpha  occ. eigenvalues --   -0.91033  -0.51150  -0.43783  -0.38515
 Alpha virt. eigenvalues --    0.05336   0.09870   0.49668   0.52540   0.53106
 Alpha virt. eigenvalues --    0.54647   0.93089   0.93435   0.98946   0.99423
 Alpha virt. eigenvalues --    1.01627   1.08022   1.11817   1.53989   1.55996

 Mulliken charges:
               1
     1  S   -0.135834
     2  H    0.067917
     3  H    0.067917
 Sum of Mulliken charges =   0.00000

 Dipole moment (field-independent basis, Debye):
    X=              0.0000    Y=              0.0000    Z=             -1.1375  Tot=              1.1375
 Quadrupole moment (field-independent basis, Debye-Ang):
   XX=            -17.5882   YY=            -11.3283   ZZ=            -14.6505
   XY=              0.0000   XZ=              0.0000   YZ=              0.0000

 Normal termination of Gaussian 09 at Tue Sep 30 07:44:21 2014.
