 Gaussian 09, Revision D.01,
 Gaussian 09:  ES64L-G09RevD.01 24-Apr-2013

 -----------------
 #RHF 6-31G(d',p')
 -----------------

 -------------------
 H2S.r1.25theta144.0
 -------------------
 Symbolic Z-matrix:
 Charge =  0 Multiplicity = 1

                         Standard orientation:
 ---------------------------------------------------------------------
 Center     Atomic      Atomic             Coordinates (Angstroms)
 Number     Number       Type             X           Y           Z
 ---------------------------------------------------------------------
      1         16           0        0.000000    0.000000    0.042919
      2          1           0        0.000000    1.188821   -0.343352
      3          1           0        0.000000   -1.188821   -0.343352
 ---------------------------------------------------------------------

 SCF Done:  E(RHF) =  -398.602200417     A.U. after   10 cycles

 The electronic state is 1-A1.
 Alpha  occ. eigenvalues --  -91.93516  -8.95395  -6.63897  -6.63581  -6.63461
 Alpha  occ. eigenvalues --   -1.00158  -0.69143  -0.41337  -0.38153
 Alpha virt. eigenvalues --    0.11636   0.29527   0.41109   0.44992   0.53632
 Alpha virt. eigenvalues --    0.53803   0.84097   0.86295   0.99303   1.01995
 Alpha virt. eigenvalues --    1.02386   1.25437   1.42744   1.64344   1.80183

 Mulliken charges:
               1
     1  S   -0.196072
     2  H    0.098036
     3  H    0.098036
 Sum of Mulliken charges =   0.00000

 Dipole moment (field-independent basis, Debye):
    X=              0.0000    Y=              0.0000    Z=             -1.5886  Tot=              1.5886
 Quadrupole moment (field-independent basis, Debye-Ang):
   XX=            -16.5451   YY=            -10.1529   ZZ=            -15.5651
   XY=              0.0000   XZ=              0.0000   YZ=              0.0000

 Normal termination of Gaussian 09 at Tue Sep 30 07:34:16 2014.
