 Gaussian 09, Revision D.01,
 Gaussian 09:  ES64L-G09RevD.01 24-Apr-2013

 -----------------
 #RHF 6-31G(d',p')
 -----------------

 ------------------
 H2S.r1.55theta81.0
 ------------------
 Symbolic Z-matrix:
 Charge =  0 Multiplicity = 1

                         Standard orientation:
 ---------------------------------------------------------------------
 Center     Atomic      Atomic             Coordinates (Angstroms)
 Number     Number       Type             X           Y           Z
 ---------------------------------------------------------------------
      1         16           0        0.000000    0.000000    0.130959
      2          1           0        0.000000    1.006644   -1.047670
      3          1           0        0.000000   -1.006644   -1.047670
 ---------------------------------------------------------------------

 SCF Done:  E(RHF) =  -398.635285631     A.U. after   10 cycles

 The electronic state is 1-A1.
 Alpha  occ. eigenvalues --  -91.98518  -8.98839  -6.67043  -6.66970  -6.66730
 Alpha  occ. eigenvalues --   -0.93966  -0.51457  -0.49892  -0.38559
 Alpha virt. eigenvalues --    0.10954   0.14732   0.49508   0.50629   0.53275
 Alpha virt. eigenvalues --    0.54405   0.89778   0.91251   0.95324   0.96935
 Alpha virt. eigenvalues --    0.98057   1.17397   1.22136   1.59610   1.64596

 Mulliken charges:
               1
     1  S   -0.083989
     2  H    0.041994
     3  H    0.041994
 Sum of Mulliken charges =   0.00000

 Dipole moment (field-independent basis, Debye):
    X=              0.0000    Y=              0.0000    Z=             -1.2205  Tot=              1.2205
 Quadrupole moment (field-independent basis, Debye-Ang):
   XX=            -17.1778   YY=            -13.1490   ZZ=            -13.2058
   XY=              0.0000   XZ=              0.0000   YZ=              0.0000

 Normal termination of Gaussian 09 at Tue Sep 30 07:39:48 2014.
