 Gaussian 09, Revision D.01,
 Gaussian 09:  ES64L-G09RevD.01 24-Apr-2013

 -----------------
 #RHF 6-31G(d',p')
 -----------------

 -------------------
 H2S.r0.60theta144.0
 -------------------
 Symbolic Z-matrix:
 Charge =  0 Multiplicity = 1

                         Standard orientation:
 ---------------------------------------------------------------------
 Center     Atomic      Atomic             Coordinates (Angstroms)
 Number     Number       Type             X           Y           Z
 ---------------------------------------------------------------------
      1         16           0        0.000000    0.000000    0.020601
      2          1           0        0.000000    0.570634   -0.164809
      3          1           0        0.000000   -0.570634   -0.164809
 ---------------------------------------------------------------------

 SCF Done:  E(RHF) =  -395.823319389     A.U. after   10 cycles

 The electronic state is 1-A1.
 Alpha  occ. eigenvalues --  -91.92544  -9.11450  -6.86612  -6.74447  -6.73157
 Alpha  occ. eigenvalues --   -1.22727  -0.88288  -0.44663  -0.42051
 Alpha virt. eigenvalues --    0.18024   0.24117   0.49759   0.49783   0.54339
 Alpha virt. eigenvalues --    0.60848   0.81004   0.86414   0.93759   0.99127
 Alpha virt. eigenvalues --    0.99205   1.99410   2.06209   2.07666   2.39778

 Mulliken charges:
               1
     1  S    0.805952
     2  H   -0.402976
     3  H   -0.402976
 Sum of Mulliken charges =   0.00000

 Dipole moment (field-independent basis, Debye):
    X=              0.0000    Y=              0.0000    Z=             -1.2892  Tot=              1.2892
 Quadrupole moment (field-independent basis, Debye-Ang):
   XX=            -14.3657   YY=            -11.7083   ZZ=            -13.8751
   XY=              0.0000   XZ=              0.0000   YZ=              0.0000

 Normal termination of Gaussian 09 at Tue Sep 30 07:20:54 2014.
