 Gaussian 09, Revision D.01,
 Gaussian 09:  ES64L-G09RevD.01 24-Apr-2013

 -----------------
 #RHF 6-31G(d',p')
 -----------------

 -------------------
 H2S.r0.95theta150.0
 -------------------
 Symbolic Z-matrix:
 Charge =  0 Multiplicity = 1

                         Standard orientation:
 ---------------------------------------------------------------------
 Center     Atomic      Atomic             Coordinates (Angstroms)
 Number     Number       Type             X           Y           Z
 ---------------------------------------------------------------------
      1         16           0        0.000000    0.000000    0.027320
      2          1           0        0.000000    0.917630   -0.218558
      3          1           0        0.000000   -0.917630   -0.218558
 ---------------------------------------------------------------------

 SCF Done:  E(RHF) =  -398.277136195     A.U. after   10 cycles

 The electronic state is 1-A1.
 Alpha  occ. eigenvalues --  -91.89125  -8.94977  -6.64223  -6.62555  -6.62399
 Alpha  occ. eigenvalues --   -1.11436  -0.81956  -0.41711  -0.39506
 Alpha virt. eigenvalues --    0.18268   0.30404   0.37656   0.47037   0.52349
 Alpha virt. eigenvalues --    0.52610   0.81583   0.83565   0.98147   1.01700
 Alpha virt. eigenvalues --    1.01821   1.51198   1.66244   1.77374   2.06825

 Mulliken charges:
               1
     1  S   -0.014410
     2  H    0.007205
     3  H    0.007205
 Sum of Mulliken charges =   0.00000

 Dipole moment (field-independent basis, Debye):
    X=              0.0000    Y=              0.0000    Z=             -1.4646  Tot=              1.4646
 Quadrupole moment (field-independent basis, Debye-Ang):
   XX=            -15.5337   YY=            -10.9190   ZZ=            -15.0063
   XY=              0.0000   XZ=              0.0000   YZ=              0.0000

 Normal termination of Gaussian 09 at Tue Sep 30 07:28:08 2014.
