 Gaussian 09, Revision D.01,
 Gaussian 09:  ES64L-G09RevD.01 24-Apr-2013

 -----------------
 #RHF 6-31G(d',p')
 -----------------

 -------------------
 H2S.r1.45theta105.0
 -------------------
 Symbolic Z-matrix:
 Charge =  0 Multiplicity = 1

                         Standard orientation:
 ---------------------------------------------------------------------
 Center     Atomic      Atomic             Coordinates (Angstroms)
 Number     Number       Type             X           Y           Z
 ---------------------------------------------------------------------
      1         16           0        0.000000    0.000000    0.098078
      2          1           0        0.000000    1.150362   -0.784626
      3          1           0        0.000000   -1.150362   -0.784626
 ---------------------------------------------------------------------

 SCF Done:  E(RHF) =  -398.659200650     A.U. after   10 cycles

 The electronic state is 1-A1.
 Alpha  occ. eigenvalues --  -91.97051  -8.97675  -6.65940  -6.65826  -6.65625
 Alpha  occ. eigenvalues --   -0.95434  -0.58082  -0.47080  -0.38301
 Alpha virt. eigenvalues --    0.15389   0.16169   0.48520   0.49090   0.51760
 Alpha virt. eigenvalues --    0.53528   0.91197   0.91575   0.93824   0.95984
 Alpha virt. eigenvalues --    0.98401   1.21495   1.33966   1.55470   1.65901

 Mulliken charges:
               1
     1  S   -0.093011
     2  H    0.046505
     3  H    0.046505
 Sum of Mulliken charges =   0.00000

 Dipole moment (field-independent basis, Debye):
    X=              0.0000    Y=              0.0000    Z=             -1.3457  Tot=              1.3457
 Quadrupole moment (field-independent basis, Debye-Ang):
   XX=            -16.9611   YY=            -11.7695   ZZ=            -14.2885
   XY=              0.0000   XZ=              0.0000   YZ=              0.0000

 Normal termination of Gaussian 09 at Tue Sep 30 07:37:59 2014.
