 Gaussian 09, Revision D.01,
 Gaussian 09:  ES64L-G09RevD.01 24-Apr-2013

 -----------------
 #RHF 6-31G(d',p')
 -----------------

 -------------------
 H2S.r0.80theta142.0
 -------------------
 Symbolic Z-matrix:
 Charge =  0 Multiplicity = 1

                         Standard orientation:
 ---------------------------------------------------------------------
 Center     Atomic      Atomic             Coordinates (Angstroms)
 Number     Number       Type             X           Y           Z
 ---------------------------------------------------------------------
      1         16           0        0.000000    0.000000    0.028939
      2          1           0        0.000000    0.756415   -0.231515
      3          1           0        0.000000   -0.756415   -0.231515
 ---------------------------------------------------------------------

 SCF Done:  E(RHF) =  -397.733854464     A.U. after   10 cycles

 The electronic state is 1-A1.
 Alpha  occ. eigenvalues --  -91.87150  -8.96940  -6.67186  -6.63600  -6.63113
 Alpha  occ. eigenvalues --   -1.17670  -0.86614  -0.43521  -0.40281
 Alpha virt. eigenvalues --    0.20339   0.26522   0.41152   0.50067   0.51604
 Alpha virt. eigenvalues --    0.51772   0.84311   0.84799   0.96988   1.00506
 Alpha virt. eigenvalues --    1.00609   1.69964   1.80410   1.93210   2.18732

 Mulliken charges:
               1
     1  S    0.302620
     2  H   -0.151310
     3  H   -0.151310
 Sum of Mulliken charges =   0.00000

 Dipole moment (field-independent basis, Debye):
    X=              0.0000    Y=              0.0000    Z=             -1.5426  Tot=              1.5426
 Quadrupole moment (field-independent basis, Debye-Ang):
   XX=            -15.0488   YY=            -11.3456   ZZ=            -14.3821
   XY=              0.0000   XZ=              0.0000   YZ=              0.0000

 Normal termination of Gaussian 09 at Tue Sep 30 07:24:58 2014.
