 Gaussian 09, Revision D.01,
 Gaussian 09:  ES64L-G09RevD.01 24-Apr-2013

 -----------------
 #RHF 6-31G(d',p')
 -----------------

 ------------------
 H2S.r0.90theta84.0
 ------------------
 Symbolic Z-matrix:
 Charge =  0 Multiplicity = 1

                         Standard orientation:
 ---------------------------------------------------------------------
 Center     Atomic      Atomic             Coordinates (Angstroms)
 Number     Number       Type             X           Y           Z
 ---------------------------------------------------------------------
      1         16           0        0.000000    0.000000    0.074314
      2          1           0        0.000000    0.602218   -0.594516
      3          1           0        0.000000   -0.602218   -0.594516
 ---------------------------------------------------------------------

 SCF Done:  E(RHF) =  -398.197789705     A.U. after    9 cycles

 The electronic state is 1-A1.
 Alpha  occ. eigenvalues --  -91.87769  -8.94317  -6.62736  -6.62614  -6.61241
 Alpha  occ. eigenvalues --   -1.16383  -0.69747  -0.53701  -0.39282
 Alpha virt. eigenvalues --    0.22581   0.29076   0.40273   0.47245   0.52415
 Alpha virt. eigenvalues --    0.52627   0.83338   0.86796   0.93015   0.93532
 Alpha virt. eigenvalues --    1.08948   1.67949   1.77488   1.95623   2.04787

 Mulliken charges:
               1
     1  S    0.122069
     2  H   -0.061034
     3  H   -0.061034
 Sum of Mulliken charges =   0.00000

 Dipole moment (field-independent basis, Debye):
    X=              0.0000    Y=              0.0000    Z=             -1.2587  Tot=              1.2587
 Quadrupole moment (field-independent basis, Debye-Ang):
   XX=            -15.5106   YY=            -12.1348   ZZ=            -13.0105
   XY=              0.0000   XZ=              0.0000   YZ=              0.0000

 Normal termination of Gaussian 09 at Tue Sep 30 07:26:22 2014.
