 Gaussian 09, Revision D.01,
 Gaussian 09:  ES64L-G09RevD.01 24-Apr-2013

 -----------------
 #RHF 6-31G(d',p')
 -----------------

 ------------------
 H2S.r0.80theta98.0
 ------------------
 Symbolic Z-matrix:
 Charge =  0 Multiplicity = 1

                         Standard orientation:
 ---------------------------------------------------------------------
 Center     Atomic      Atomic             Coordinates (Angstroms)
 Number     Number       Type             X           Y           Z
 ---------------------------------------------------------------------
      1         16           0        0.000000    0.000000    0.058316
      2          1           0        0.000000    0.603768   -0.466531
      3          1           0        0.000000   -0.603768   -0.466531
 ---------------------------------------------------------------------

 SCF Done:  E(RHF) =  -397.781287049     A.U. after   10 cycles

 The electronic state is 1-A1.
 Alpha  occ. eigenvalues --  -91.86451  -8.95903  -6.64734  -6.63901  -6.61954
 Alpha  occ. eigenvalues --   -1.19437  -0.77350  -0.51237  -0.39773
 Alpha virt. eigenvalues --    0.23419   0.25594   0.45372   0.47660   0.52096
 Alpha virt. eigenvalues --    0.52476   0.84808   0.89126   0.91347   0.95631
 Alpha virt. eigenvalues --    1.06393   1.80704   1.87234   2.03630   2.11325

 Mulliken charges:
               1
     1  S    0.287275
     2  H   -0.143637
     3  H   -0.143637
 Sum of Mulliken charges =   0.00000

 Dipole moment (field-independent basis, Debye):
    X=              0.0000    Y=              0.0000    Z=             -1.3781  Tot=              1.3781
 Quadrupole moment (field-independent basis, Debye-Ang):
   XX=            -15.1940   YY=            -11.7599   ZZ=            -13.3007
   XY=              0.0000   XZ=              0.0000   YZ=              0.0000

 Normal termination of Gaussian 09 at Tue Sep 30 07:24:28 2014.
