 Gaussian 09, Revision D.01,
 Gaussian 09:  ES64L-G09RevD.01 24-Apr-2013

 -----------------
 #RHF 6-31G(d',p')
 -----------------

 ------------------
 H2S.r0.80theta89.0
 ------------------
 Symbolic Z-matrix:
 Charge =  0 Multiplicity = 1

                         Standard orientation:
 ---------------------------------------------------------------------
 Center     Atomic      Atomic             Coordinates (Angstroms)
 Number     Number       Type             X           Y           Z
 ---------------------------------------------------------------------
      1         16           0        0.000000    0.000000    0.063400
      2          1           0        0.000000    0.560727   -0.507200
      3          1           0        0.000000   -0.560727   -0.507200
 ---------------------------------------------------------------------

 SCF Done:  E(RHF) =  -397.775825004     A.U. after   10 cycles

 The electronic state is 1-A1.
 Alpha  occ. eigenvalues --  -91.86451  -8.95856  -6.64336  -6.64202  -6.61887
 Alpha  occ. eigenvalues --   -1.20505  -0.74099  -0.53010  -0.39754
 Alpha virt. eigenvalues --    0.23045   0.25614   0.45534   0.48051   0.52120
 Alpha virt. eigenvalues --    0.53071   0.83970   0.87965   0.92935   0.94227
 Alpha virt. eigenvalues --    1.07880   1.80130   1.86670   2.02906   2.18675

 Mulliken charges:
               1
     1  S    0.263882
     2  H   -0.131941
     3  H   -0.131941
 Sum of Mulliken charges =   0.00000

 Dipole moment (field-independent basis, Debye):
    X=              0.0000    Y=              0.0000    Z=             -1.2747  Tot=              1.2747
 Quadrupole moment (field-independent basis, Debye-Ang):
   XX=            -15.2214   YY=            -11.9308   ZZ=            -13.0547
   XY=              0.0000   XZ=              0.0000   YZ=              0.0000

 Normal termination of Gaussian 09 at Tue Sep 30 07:24:22 2014.
