 Gaussian 09, Revision D.01,
 Gaussian 09:  ES64L-G09RevD.01 24-Apr-2013

 -----------------
 #RHF 6-31G(d',p')
 -----------------

 -------------------
 H2S.r1.30theta116.0
 -------------------
 Symbolic Z-matrix:
 Charge =  0 Multiplicity = 1

                         Standard orientation:
 ---------------------------------------------------------------------
 Center     Atomic      Atomic             Coordinates (Angstroms)
 Number     Number       Type             X           Y           Z
 ---------------------------------------------------------------------
      1         16           0        0.000000    0.000000    0.076544
      2          1           0        0.000000    1.102463   -0.612351
      3          1           0        0.000000   -1.102463   -0.612351
 ---------------------------------------------------------------------

 SCF Done:  E(RHF) =  -398.661006674     A.U. after   10 cycles

 The electronic state is 1-A1.
 Alpha  occ. eigenvalues --  -91.94766  -8.96143  -6.64501  -6.64313  -6.64118
 Alpha  occ. eigenvalues --   -0.98975  -0.64456  -0.46069  -0.38269
 Alpha virt. eigenvalues --    0.17870   0.21379   0.43919   0.46401   0.52617
 Alpha virt. eigenvalues --    0.53608   0.89915   0.90255   0.93531   0.97275
 Alpha virt. eigenvalues --    0.98707   1.32596   1.41531   1.62611   1.72929

 Mulliken charges:
               1
     1  S   -0.097676
     2  H    0.048838
     3  H    0.048838
 Sum of Mulliken charges =   0.00000

 Dipole moment (field-independent basis, Debye):
    X=              0.0000    Y=              0.0000    Z=             -1.5116  Tot=              1.5116
 Quadrupole moment (field-independent basis, Debye-Ang):
   XX=            -16.6001   YY=            -11.2782   ZZ=            -14.5992
   XY=              0.0000   XZ=              0.0000   YZ=              0.0000

 Normal termination of Gaussian 09 at Tue Sep 30 07:34:59 2014.
