 Gaussian 09, Revision D.01,
 Gaussian 09:  ES64L-G09RevD.01 24-Apr-2013

 -----------------
 #RHF 6-31G(d',p')
 -----------------

 -------------------
 H2S.r0.75theta120.0
 -------------------
 Symbolic Z-matrix:
 Charge =  0 Multiplicity = 1

                         Standard orientation:
 ---------------------------------------------------------------------
 Center     Atomic      Atomic             Coordinates (Angstroms)
 Number     Number       Type             X           Y           Z
 ---------------------------------------------------------------------
      1         16           0        0.000000    0.000000    0.041667
      2          1           0        0.000000    0.649519   -0.333333
      3          1           0        0.000000   -0.649519   -0.333333
 ---------------------------------------------------------------------

 SCF Done:  E(RHF) =  -397.457852982     A.U. after   10 cycles

 The electronic state is 1-A1.
 Alpha  occ. eigenvalues --  -91.86559  -8.97990  -6.68058  -6.64881  -6.63406
 Alpha  occ. eigenvalues --   -1.19974  -0.84421  -0.47299  -0.40291
 Alpha virt. eigenvalues --    0.22642   0.24536   0.45963   0.49001   0.51402
 Alpha virt. eigenvalues --    0.51578   0.88022   0.88429   0.93090   0.98493
 Alpha virt. eigenvalues --    1.00218   1.86578   1.88580   2.08095   2.11798

 Mulliken charges:
               1
     1  S    0.428253
     2  H   -0.214126
     3  H   -0.214126
 Sum of Mulliken charges =   0.00000

 Dipole moment (field-independent basis, Debye):
    X=              0.0000    Y=              0.0000    Z=             -1.5572  Tot=              1.5572
 Quadrupole moment (field-independent basis, Debye-Ang):
   XX=            -14.9702   YY=            -11.5285   ZZ=            -13.7613
   XY=              0.0000   XZ=              0.0000   YZ=              0.0000

 Normal termination of Gaussian 09 at Tue Sep 30 07:23:42 2014.
