 Gaussian 09, Revision D.01,
 Gaussian 09:  ES64L-G09RevD.01 24-Apr-2013

 -----------------
 #RHF 6-31G(d',p')
 -----------------

 -------------------
 H2S.r1.05theta153.0
 -------------------
 Symbolic Z-matrix:
 Charge =  0 Multiplicity = 1

                         Standard orientation:
 ---------------------------------------------------------------------
 Center     Atomic      Atomic             Coordinates (Angstroms)
 Number     Number       Type             X           Y           Z
 ---------------------------------------------------------------------
      1         16           0        0.000000    0.000000    0.027235
      2          1           0        0.000000    1.020988   -0.217882
      3          1           0        0.000000   -1.020988   -0.217882
 ---------------------------------------------------------------------

 SCF Done:  E(RHF) =  -398.450663386     A.U. after   10 cycles

 The electronic state is 1-A1.
 Alpha  occ. eigenvalues --  -91.90620  -8.94741  -6.63643  -6.62670  -6.62576
 Alpha  occ. eigenvalues --   -1.07295  -0.77957  -0.40834  -0.38977
 Alpha virt. eigenvalues --    0.15510   0.33638   0.38018   0.44741   0.52838
 Alpha virt. eigenvalues --    0.53113   0.80920   0.83579   0.97720   1.02404
 Alpha virt. eigenvalues --    1.02506   1.41795   1.59482   1.69929   1.92978

 Mulliken charges:
               1
     1  S   -0.148092
     2  H    0.074046
     3  H    0.074046
 Sum of Mulliken charges =   0.00000

 Dipole moment (field-independent basis, Debye):
    X=              0.0000    Y=              0.0000    Z=             -1.4206  Tot=              1.4206
 Quadrupole moment (field-independent basis, Debye-Ang):
   XX=            -15.8856   YY=            -10.5297   ZZ=            -15.3877
   XY=              0.0000   XZ=              0.0000   YZ=              0.0000

 Normal termination of Gaussian 09 at Tue Sep 30 07:30:12 2014.
