 Gaussian 09, Revision D.01,
 Gaussian 09:  ES64L-G09RevD.01 24-Apr-2013

 -----------------
 #RHF 6-31G(d',p')
 -----------------

 ------------------
 H2S.r1.60theta91.0
 ------------------
 Symbolic Z-matrix:
 Charge =  0 Multiplicity = 1

                         Standard orientation:
 ---------------------------------------------------------------------
 Center     Atomic      Atomic             Coordinates (Angstroms)
 Number     Number       Type             X           Y           Z
 ---------------------------------------------------------------------
      1         16           0        0.000000    0.000000    0.124606
      2          1           0        0.000000    1.141201   -0.996849
      3          1           0        0.000000   -1.141201   -0.996849
 ---------------------------------------------------------------------

 SCF Done:  E(RHF) =  -398.623888490     A.U. after   10 cycles

 The electronic state is 1-A1.
 Alpha  occ. eigenvalues --  -91.98955  -8.99164  -6.67370  -6.67282  -6.67051
 Alpha  occ. eigenvalues --   -0.92999  -0.52075  -0.47904  -0.38524
 Alpha virt. eigenvalues --    0.10784   0.12657   0.49750   0.50629   0.53243
 Alpha virt. eigenvalues --    0.55410   0.90568   0.92625   0.95034   0.97830
 Alpha virt. eigenvalues --    0.98669   1.13964   1.21650   1.57118   1.58671

 Mulliken charges:
               1
     1  S   -0.099808
     2  H    0.049904
     3  H    0.049904
 Sum of Mulliken charges =   0.00000

 Dipole moment (field-independent basis, Debye):
    X=              0.0000    Y=              0.0000    Z=             -1.2187  Tot=              1.2187
 Quadrupole moment (field-independent basis, Debye-Ang):
   XX=            -17.2833   YY=            -12.5826   ZZ=            -13.6722
   XY=              0.0000   XZ=              0.0000   YZ=              0.0000

 Normal termination of Gaussian 09 at Tue Sep 30 07:40:57 2014.
