 Gaussian 09, Revision D.01,
 Gaussian 09:  ES64L-G09RevD.01 24-Apr-2013

 -----------------
 #RHF 6-31G(d',p')
 -----------------

 ------------------
 H2S.r1.40theta96.0
 ------------------
 Symbolic Z-matrix:
 Charge =  0 Multiplicity = 1

                         Standard orientation:
 ---------------------------------------------------------------------
 Center     Atomic      Atomic             Coordinates (Angstroms)
 Number     Number       Type             X           Y           Z
 ---------------------------------------------------------------------
      1         16           0        0.000000    0.000000    0.104087
      2          1           0        0.000000    1.040403   -0.832696
      3          1           0        0.000000   -1.040403   -0.832696
 ---------------------------------------------------------------------

 SCF Done:  E(RHF) =  -398.671113204     A.U. after   10 cycles

 The electronic state is 1-A1.
 Alpha  occ. eigenvalues --  -91.96521  -8.97324  -6.65594  -6.65482  -6.65269
 Alpha  occ. eigenvalues --   -0.96686  -0.58043  -0.48887  -0.38369
 Alpha virt. eigenvalues --    0.16054   0.18575   0.48434   0.49545   0.51252
 Alpha virt. eigenvalues --    0.53521   0.88713   0.90242   0.94037   0.96710
 Alpha virt. eigenvalues --    0.97516   1.24405   1.38856   1.59255   1.66694

 Mulliken charges:
               1
     1  S   -0.073430
     2  H    0.036715
     3  H    0.036715
 Sum of Mulliken charges =   0.00000

 Dipole moment (field-independent basis, Debye):
    X=              0.0000    Y=              0.0000    Z=             -1.3214  Tot=              1.3214
 Quadrupole moment (field-independent basis, Debye-Ang):
   XX=            -16.8299   YY=            -12.2072   ZZ=            -13.8927
   XY=              0.0000   XZ=              0.0000   YZ=              0.0000

 Normal termination of Gaussian 09 at Tue Sep 30 07:36:50 2014.
