 Gaussian 09, Revision D.01,
 Gaussian 09:  ES64L-G09RevD.01 24-Apr-2013

 -----------------
 #RHF 6-31G(d',p')
 -----------------

 -------------------
 H2S.r1.75theta138.0
 -------------------
 Symbolic Z-matrix:
 Charge =  0 Multiplicity = 1

                         Standard orientation:
 ---------------------------------------------------------------------
 Center     Atomic      Atomic             Coordinates (Angstroms)
 Number     Number       Type             X           Y           Z
 ---------------------------------------------------------------------
      1         16           0        0.000000    0.000000    0.069683
      2          1           0        0.000000    1.633766   -0.557461
      3          1           0        0.000000   -1.633766   -0.557461
 ---------------------------------------------------------------------

 SCF Done:  E(RHF) =  -398.528935241     A.U. after   11 cycles

 The electronic state is 1-A1.
 Alpha  occ. eigenvalues --  -91.99229  -8.99340  -6.67521  -6.67437  -6.67190
 Alpha  occ. eigenvalues --   -0.90679  -0.52817  -0.40357  -0.38164
 Alpha virt. eigenvalues --    0.00089   0.13556   0.48642   0.53158   0.53353
 Alpha virt. eigenvalues --    0.55763   0.89555   0.95876   0.98117   1.02621
 Alpha virt. eigenvalues --    1.03177   1.07108   1.09450   1.54723   1.56172

 Mulliken charges:
               1
     1  S   -0.190356
     2  H    0.095178
     3  H    0.095178
 Sum of Mulliken charges =   0.00000

 Dipole moment (field-independent basis, Debye):
    X=              0.0000    Y=              0.0000    Z=             -1.1060  Tot=              1.1060
 Quadrupole moment (field-independent basis, Debye-Ang):
   XX=            -17.6703   YY=             -9.8838   ZZ=            -15.7143
   XY=              0.0000   XZ=              0.0000   YZ=              0.0000

 Normal termination of Gaussian 09 at Tue Sep 30 07:44:39 2014.
