 Gaussian 09, Revision D.01,
 Gaussian 09:  ES64L-G09RevD.01 24-Apr-2013

 -----------------
 #RHF 6-31G(d',p')
 -----------------

 -------------------
 H2S.r1.50theta106.0
 -------------------
 Symbolic Z-matrix:
 Charge =  0 Multiplicity = 1

                         Standard orientation:
 ---------------------------------------------------------------------
 Center     Atomic      Atomic             Coordinates (Angstroms)
 Number     Number       Type             X           Y           Z
 ---------------------------------------------------------------------
      1         16           0        0.000000    0.000000    0.100303
      2          1           0        0.000000    1.197953   -0.802420
      3          1           0        0.000000   -1.197953   -0.802420
 ---------------------------------------------------------------------

 SCF Done:  E(RHF) =  -398.647373548     A.U. after   10 cycles

 The electronic state is 1-A1.
 Alpha  occ. eigenvalues --  -91.97641  -8.98107  -6.66356  -6.66249  -6.66045
 Alpha  occ. eigenvalues --   -0.94440  -0.56798  -0.46573  -0.38310
 Alpha virt. eigenvalues --    0.13573   0.15127   0.49061   0.49705   0.51951
 Alpha virt. eigenvalues --    0.53481   0.91757   0.91791   0.94685   0.95852
 Alpha virt. eigenvalues --    0.99029   1.18741   1.29298   1.55019   1.63850

 Mulliken charges:
               1
     1  S   -0.100384
     2  H    0.050192
     3  H    0.050192
 Sum of Mulliken charges =   0.00000

 Dipole moment (field-independent basis, Debye):
    X=              0.0000    Y=              0.0000    Z=             -1.3171  Tot=              1.3171
 Quadrupole moment (field-independent basis, Debye-Ang):
   XX=            -17.0790   YY=            -11.7195   ZZ=            -14.3509
   XY=              0.0000   XZ=              0.0000   YZ=              0.0000

 Normal termination of Gaussian 09 at Tue Sep 30 07:39:02 2014.
