 Gaussian 09, Revision D.01,
 Gaussian 09:  ES64L-G09RevD.01 24-Apr-2013

 -----------------
 #RHF 6-31G(d',p')
 -----------------

 -------------------
 H2S.r1.70theta158.0
 -------------------
 Symbolic Z-matrix:
 Charge =  0 Multiplicity = 1

                         Standard orientation:
 ---------------------------------------------------------------------
 Center     Atomic      Atomic             Coordinates (Angstroms)
 Number     Number       Type             X           Y           Z
 ---------------------------------------------------------------------
      1         16           0        0.000000    0.000000    0.036042
      2          1           0        0.000000    1.668766   -0.288334
      3          1           0        0.000000   -1.668766   -0.288334
 ---------------------------------------------------------------------

 SCF Done:  E(RHF) =  -398.500719643     A.U. after   11 cycles

 The electronic state is 1-A1.
 Alpha  occ. eigenvalues --  -91.97557  -8.97844  -6.66093  -6.65969  -6.65771
 Alpha  occ. eigenvalues --   -0.90504  -0.54535  -0.37598  -0.37386
 Alpha virt. eigenvalues --   -0.03216   0.17828   0.47341   0.53957   0.54200
 Alpha virt. eigenvalues --    0.60257   0.85969   0.96792   0.97385   1.02281
 Alpha virt. eigenvalues --    1.04670   1.04756   1.12973   1.54220   1.54821

 Mulliken charges:
               1
     1  S   -0.313493
     2  H    0.156746
     3  H    0.156746
 Sum of Mulliken charges =   0.00000

 Dipole moment (field-independent basis, Debye):
    X=              0.0000    Y=              0.0000    Z=             -1.0804  Tot=              1.0804
 Quadrupole moment (field-independent basis, Debye-Ang):
   XX=            -17.7438   YY=             -8.3861   ZZ=            -16.4588
   XY=              0.0000   XZ=              0.0000   YZ=              0.0000

 Normal termination of Gaussian 09 at Tue Sep 30 07:43:48 2014.
