 Gaussian 09, Revision D.01,
 Gaussian 09:  ES64L-G09RevD.01 24-Apr-2013

 -----------------
 #RHF 6-31G(d',p')
 -----------------

 -------------------
 H2S.r0.85theta141.0
 -------------------
 Symbolic Z-matrix:
 Charge =  0 Multiplicity = 1

                         Standard orientation:
 ---------------------------------------------------------------------
 Center     Atomic      Atomic             Coordinates (Angstroms)
 Number     Number       Type             X           Y           Z
 ---------------------------------------------------------------------
      1         16           0        0.000000    0.000000    0.031526
      2          1           0        0.000000    0.801245   -0.252210
      3          1           0        0.000000   -0.801245   -0.252210
 ---------------------------------------------------------------------

 SCF Done:  E(RHF) =  -397.974240383     A.U. after   10 cycles

 The electronic state is 1-A1.
 Alpha  occ. eigenvalues --  -91.87597  -8.95815  -6.65566  -6.62900  -6.62503
 Alpha  occ. eigenvalues --   -1.15697  -0.84949  -0.43432  -0.39969
 Alpha virt. eigenvalues --    0.20752   0.27206   0.39385   0.48186   0.51917
 Alpha virt. eigenvalues --    0.52091   0.84522   0.84631   0.97384   1.00579
 Alpha virt. eigenvalues --    1.00735   1.63390   1.74816   1.89563   2.13942

 Mulliken charges:
               1
     1  S    0.197047
     2  H   -0.098524
     3  H   -0.098524
 Sum of Mulliken charges =   0.00000

 Dipole moment (field-independent basis, Debye):
    X=              0.0000    Y=              0.0000    Z=             -1.5827  Tot=              1.5827
 Quadrupole moment (field-independent basis, Debye-Ang):
   XX=            -15.2171   YY=            -11.2537   ZZ=            -14.4937
   XY=              0.0000   XZ=              0.0000   YZ=              0.0000

 Normal termination of Gaussian 09 at Tue Sep 30 07:25:59 2014.
