 Gaussian 09, Revision D.01,
 Gaussian 09:  ES64L-G09RevD.01 24-Apr-2013

 -----------------
 #RHF 6-31G(d',p')
 -----------------

 ------------------
 H2S.r0.60theta84.0
 ------------------
 Symbolic Z-matrix:
 Charge =  0 Multiplicity = 1

                         Standard orientation:
 ---------------------------------------------------------------------
 Center     Atomic      Atomic             Coordinates (Angstroms)
 Number     Number       Type             X           Y           Z
 ---------------------------------------------------------------------
      1         16           0        0.000000    0.000000    0.049543
      2          1           0        0.000000    0.401478   -0.396344
      3          1           0        0.000000   -0.401478   -0.396344
 ---------------------------------------------------------------------

 SCF Done:  E(RHF) =  -395.838080675     A.U. after    9 cycles

 The electronic state is 1-A1.
 Alpha  occ. eigenvalues --  -91.91531  -9.10441  -6.79028  -6.78505  -6.71563
 Alpha  occ. eigenvalues --   -1.27628  -0.73379  -0.54649  -0.41468
 Alpha virt. eigenvalues --    0.20184   0.22891   0.47879   0.50211   0.53586
 Alpha virt. eigenvalues --    0.68465   0.86690   0.86881   0.93931   0.94223
 Alpha virt. eigenvalues --    0.99839   2.05566   2.07960   2.18390   2.30440

 Mulliken charges:
               1
     1  S    0.668029
     2  H   -0.334015
     3  H   -0.334015
 Sum of Mulliken charges =   0.00000

 Dipole moment (field-independent basis, Debye):
    X=              0.0000    Y=              0.0000    Z=             -1.0383  Tot=              1.0383
 Quadrupole moment (field-independent basis, Debye-Ang):
   XX=            -14.5950   YY=            -11.9695   ZZ=            -12.7756
   XY=              0.0000   XZ=              0.0000   YZ=              0.0000

 Normal termination of Gaussian 09 at Tue Sep 30 07:20:14 2014.
