 Gaussian 09, Revision D.01,
 Gaussian 09:  ES64L-G09RevD.01 24-Apr-2013

 -----------------
 #RHF 6-31G(d',p')
 -----------------

 -------------------
 H2S.r0.90theta154.0
 -------------------
 Symbolic Z-matrix:
 Charge =  0 Multiplicity = 1

                         Standard orientation:
 ---------------------------------------------------------------------
 Center     Atomic      Atomic             Coordinates (Angstroms)
 Number     Number       Type             X           Y           Z
 ---------------------------------------------------------------------
      1         16           0        0.000000    0.000000    0.022495
      2          1           0        0.000000    0.876933   -0.179961
      3          1           0        0.000000   -0.876933   -0.179961
 ---------------------------------------------------------------------

 SCF Done:  E(RHF) =  -398.131735715     A.U. after   10 cycles

 The electronic state is 1-A1.
 Alpha  occ. eigenvalues --  -91.88457  -8.95466  -6.65034  -6.62756  -6.62609
 Alpha  occ. eigenvalues --   -1.13510  -0.84178  -0.41477  -0.39827
 Alpha virt. eigenvalues --    0.18153   0.29767   0.38171   0.49952   0.52029
 Alpha virt. eigenvalues --    0.52267   0.80807   0.83301   0.97208   1.01774
 Alpha virt. eigenvalues --    1.01837   1.57173   1.70872   1.79351   2.08706

 Mulliken charges:
               1
     1  S    0.052819
     2  H   -0.026410
     3  H   -0.026410
 Sum of Mulliken charges =   0.00000

 Dipole moment (field-independent basis, Debye):
    X=              0.0000    Y=              0.0000    Z=             -1.3331  Tot=              1.3331
 Quadrupole moment (field-independent basis, Debye-Ang):
   XX=            -15.3507   YY=            -11.0287   ZZ=            -14.9546
   XY=              0.0000   XZ=              0.0000   YZ=              0.0000

 Normal termination of Gaussian 09 at Tue Sep 30 07:27:09 2014.
