 Gaussian 09, Revision D.01,
 Gaussian 09:  ES64L-G09RevD.01 24-Apr-2013

 -----------------
 #RHF 6-31G(d',p')
 -----------------

 -------------------
 H2S.r1.70theta148.0
 -------------------
 Symbolic Z-matrix:
 Charge =  0 Multiplicity = 1

                         Standard orientation:
 ---------------------------------------------------------------------
 Center     Atomic      Atomic             Coordinates (Angstroms)
 Number     Number       Type             X           Y           Z
 ---------------------------------------------------------------------
      1         16           0        0.000000    0.000000    0.052065
      2          1           0        0.000000    1.634145   -0.416519
      3          1           0        0.000000   -1.634145   -0.416519
 ---------------------------------------------------------------------

 SCF Done:  E(RHF) =  -398.524113653     A.U. after   11 cycles

 The electronic state is 1-A1.
 Alpha  occ. eigenvalues --  -91.98288  -8.98516  -6.66732  -6.66631  -6.66409
 Alpha  occ. eigenvalues --   -0.90903  -0.54410  -0.39124  -0.37814
 Alpha virt. eigenvalues --   -0.01092   0.16541   0.47587   0.53646   0.53646
 Alpha virt. eigenvalues --    0.57088   0.87195   0.96769   0.96850   1.03639
 Alpha virt. eigenvalues --    1.03891   1.05500   1.12482   1.55473   1.56252

 Mulliken charges:
               1
     1  S   -0.239016
     2  H    0.119508
     3  H    0.119508
 Sum of Mulliken charges =   0.00000

 Dipole moment (field-independent basis, Debye):
    X=              0.0000    Y=              0.0000    Z=             -1.1462  Tot=              1.1462
 Quadrupole moment (field-independent basis, Debye-Ang):
   XX=            -17.6513   YY=             -9.2516   ZZ=            -16.0706
   XY=              0.0000   XZ=              0.0000   YZ=              0.0000

 Normal termination of Gaussian 09 at Tue Sep 30 07:43:41 2014.
