 Gaussian 09, Revision D.01,
 Gaussian 09:  ES64L-G09RevD.01 24-Apr-2013

 -----------------
 #RHF 6-31G(d',p')
 -----------------

 ------------------
 H2S.r1.35theta78.0
 ------------------
 Symbolic Z-matrix:
 Charge =  0 Multiplicity = 1

                         Standard orientation:
 ---------------------------------------------------------------------
 Center     Atomic      Atomic             Coordinates (Angstroms)
 Number     Number       Type             X           Y           Z
 ---------------------------------------------------------------------
      1         16           0        0.000000    0.000000    0.116572
      2          1           0        0.000000    0.849583   -0.932575
      3          1           0        0.000000   -0.849583   -0.932575
 ---------------------------------------------------------------------

 SCF Done:  E(RHF) =  -398.667633430     A.U. after   10 cycles

 The electronic state is 1-A1.
 Alpha  occ. eigenvalues --  -91.95942  -8.96977  -6.65217  -6.65163  -6.64890
 Alpha  occ. eigenvalues --   -0.98525  -0.55408  -0.52369  -0.38495
 Alpha virt. eigenvalues --    0.15350   0.21134   0.48070   0.49217   0.50431
 Alpha virt. eigenvalues --    0.53483   0.86319   0.88434   0.93437   0.96076
 Alpha virt. eigenvalues --    0.99843   1.29764   1.36055   1.67655   1.70497

 Mulliken charges:
               1
     1  S   -0.044222
     2  H    0.022111
     3  H    0.022111
 Sum of Mulliken charges =   0.00000

 Dipole moment (field-independent basis, Debye):
    X=              0.0000    Y=              0.0000    Z=             -1.2403  Tot=              1.2403
 Quadrupole moment (field-independent basis, Debye-Ang):
   XX=            -16.7056   YY=            -13.0568   ZZ=            -13.1167
   XY=              0.0000   XZ=              0.0000   YZ=              0.0000

 Normal termination of Gaussian 09 at Tue Sep 30 07:35:35 2014.
