 Gaussian 09, Revision D.01,
 Gaussian 09:  ES64L-G09RevD.01 24-Apr-2013

 -----------------
 #RHF 6-31G(d',p')
 -----------------

 -------------------
 H2S.r0.75theta105.0
 -------------------
 Symbolic Z-matrix:
 Charge =  0 Multiplicity = 1

                         Standard orientation:
 ---------------------------------------------------------------------
 Center     Atomic      Atomic             Coordinates (Angstroms)
 Number     Number       Type             X           Y           Z
 ---------------------------------------------------------------------
      1         16           0        0.000000    0.000000    0.050730
      2          1           0        0.000000    0.595015   -0.405841
      3          1           0        0.000000   -0.595015   -0.405841
 ---------------------------------------------------------------------

 SCF Done:  E(RHF) =  -397.468451772     A.U. after   10 cycles

 The electronic state is 1-A1.
 Alpha  occ. eigenvalues --  -91.86334  -8.97659  -6.67020  -6.65224  -6.63035
 Alpha  occ. eigenvalues --   -1.20806  -0.80607  -0.50049  -0.40124
 Alpha virt. eigenvalues --    0.23668   0.23735   0.47733   0.48639   0.51732
 Alpha virt. eigenvalues --    0.52421   0.86542   0.90359   0.90428   0.96693
 Alpha virt. eigenvalues --    1.03733   1.88578   1.91361   2.08742   2.11695

 Mulliken charges:
               1
     1  S    0.397858
     2  H   -0.198929
     3  H   -0.198929
 Sum of Mulliken charges =   0.00000

 Dipole moment (field-independent basis, Debye):
    X=              0.0000    Y=              0.0000    Z=             -1.4257  Tot=              1.4257
 Quadrupole moment (field-independent basis, Debye-Ang):
   XX=            -15.0226   YY=            -11.6628   ZZ=            -13.4088
   XY=              0.0000   XZ=              0.0000   YZ=              0.0000

 Normal termination of Gaussian 09 at Tue Sep 30 07:23:32 2014.
