 Gaussian 09, Revision D.01,
 Gaussian 09:  ES64L-G09RevD.01 24-Apr-2013

 -----------------
 #RHF 6-31G(d',p')
 -----------------

 ------------------
 H2S.r0.75theta90.0
 ------------------
 Symbolic Z-matrix:
 Charge =  0 Multiplicity = 1

                         Standard orientation:
 ---------------------------------------------------------------------
 Center     Atomic      Atomic             Coordinates (Angstroms)
 Number     Number       Type             X           Y           Z
 ---------------------------------------------------------------------
      1         16           0        0.000000    0.000000    0.058926
      2          1           0        0.000000    0.530330   -0.471405
      3          1           0        0.000000   -0.530330   -0.471405
 ---------------------------------------------------------------------

 SCF Done:  E(RHF) =  -397.462834230     A.U. after   10 cycles

 The electronic state is 1-A1.
 Alpha  occ. eigenvalues --  -91.86279  -8.97523  -6.66111  -6.65835  -6.62857
 Alpha  occ. eigenvalues --   -1.22493  -0.75413  -0.52960  -0.40055
 Alpha virt. eigenvalues --    0.23076   0.23933   0.47724   0.48985   0.51801
 Alpha virt. eigenvalues --    0.54563   0.84555   0.88314   0.92964   0.94544
 Alpha virt. eigenvalues --    1.06619   1.87104   1.91442   2.06667   2.25355

 Mulliken charges:
               1
     1  S    0.350507
     2  H   -0.175254
     3  H   -0.175254
 Sum of Mulliken charges =   0.00000

 Dipole moment (field-independent basis, Debye):
    X=              0.0000    Y=              0.0000    Z=             -1.2566  Tot=              1.2566
 Quadrupole moment (field-independent basis, Debye-Ang):
   XX=            -15.0721   YY=            -11.8879   ZZ=            -13.0295
   XY=              0.0000   XZ=              0.0000   YZ=              0.0000

 Normal termination of Gaussian 09 at Tue Sep 30 07:23:22 2014.
