 Gaussian 09, Revision D.01,
 Gaussian 09:  ES64L-G09RevD.01 24-Apr-2013

 -----------------
 #RHF 6-31G(d',p')
 -----------------

 ------------------
 H2S.r1.60theta81.0
 ------------------
 Symbolic Z-matrix:
 Charge =  0 Multiplicity = 1

                         Standard orientation:
 ---------------------------------------------------------------------
 Center     Atomic      Atomic             Coordinates (Angstroms)
 Number     Number       Type             X           Y           Z
 ---------------------------------------------------------------------
      1         16           0        0.000000    0.000000    0.135183
      2          1           0        0.000000    1.039117   -1.081466
      3          1           0        0.000000   -1.039117   -1.081466
 ---------------------------------------------------------------------

 SCF Done:  E(RHF) =  -398.620702110     A.U. after   10 cycles

 The electronic state is 1-A1.
 Alpha  occ. eigenvalues --  -91.99038  -8.99252  -6.67443  -6.67373  -6.67127
 Alpha  occ. eigenvalues --   -0.93167  -0.50397  -0.49335  -0.38601
 Alpha virt. eigenvalues --    0.09797   0.13210   0.49237   0.51071   0.53195
 Alpha virt. eigenvalues --    0.55679   0.90131   0.92582   0.94765   0.97731
 Alpha virt. eigenvalues --    0.98705   1.14975   1.19063   1.58127   1.62786

 Mulliken charges:
               1
     1  S   -0.093571
     2  H    0.046786
     3  H    0.046786
 Sum of Mulliken charges =   0.00000

 Dipole moment (field-independent basis, Debye):
    X=              0.0000    Y=              0.0000    Z=             -1.2121  Tot=              1.2121
 Quadrupole moment (field-independent basis, Debye-Ang):
   XX=            -17.2847   YY=            -13.1941   ZZ=            -13.1756
   XY=              0.0000   XZ=              0.0000   YZ=              0.0000

 Normal termination of Gaussian 09 at Tue Sep 30 07:40:50 2014.
