 Gaussian 09, Revision D.01,
 Gaussian 09:  ES64L-G09RevD.01 24-Apr-2013

 -----------------
 #RHF 6-31G(d',p')
 -----------------

 -------------------
 H2S.r1.00theta142.0
 -------------------
 Symbolic Z-matrix:
 Charge =  0 Multiplicity = 1

                         Standard orientation:
 ---------------------------------------------------------------------
 Center     Atomic      Atomic             Coordinates (Angstroms)
 Number     Number       Type             X           Y           Z
 ---------------------------------------------------------------------
      1         16           0        0.000000    0.000000    0.036174
      2          1           0        0.000000    0.945519   -0.289394
      3          1           0        0.000000   -0.945519   -0.289394
 ---------------------------------------------------------------------

 SCF Done:  E(RHF) =  -398.397006985     A.U. after   10 cycles

 The electronic state is 1-A1.
 Alpha  occ. eigenvalues --  -91.89807  -8.94649  -6.63621  -6.62448  -6.62250
 Alpha  occ. eigenvalues --   -1.09406  -0.79285  -0.42638  -0.39180
 Alpha virt. eigenvalues --    0.19240   0.29616   0.37566   0.44814   0.52687
 Alpha virt. eigenvalues --    0.52898   0.83836   0.84337   0.98494   1.01011
 Alpha virt. eigenvalues --    1.01299   1.47218   1.61356   1.77761   2.02623

 Mulliken charges:
               1
     1  S   -0.047965
     2  H    0.023983
     3  H    0.023983
 Sum of Mulliken charges =   0.00000

 Dipole moment (field-independent basis, Debye):
    X=              0.0000    Y=              0.0000    Z=             -1.6189  Tot=              1.6189
 Quadrupole moment (field-independent basis, Debye-Ang):
   XX=            -15.7146   YY=            -10.9029   ZZ=            -14.9189
   XY=              0.0000   XZ=              0.0000   YZ=              0.0000

 Normal termination of Gaussian 09 at Tue Sep 30 07:29:03 2014.
