 Gaussian 09, Revision D.01,
 Gaussian 09:  ES64L-G09RevD.01 24-Apr-2013

 -----------------
 #RHF 6-31G(d',p')
 -----------------

 ------------------
 H2S.r0.90theta89.0
 ------------------
 Symbolic Z-matrix:
 Charge =  0 Multiplicity = 1

                         Standard orientation:
 ---------------------------------------------------------------------
 Center     Atomic      Atomic             Coordinates (Angstroms)
 Number     Number       Type             X           Y           Z
 ---------------------------------------------------------------------
      1         16           0        0.000000    0.000000    0.071325
      2          1           0        0.000000    0.630818   -0.570600
      3          1           0        0.000000   -0.630818   -0.570600
 ---------------------------------------------------------------------

 SCF Done:  E(RHF) =  -398.202954706     A.U. after   10 cycles

 The electronic state is 1-A1.
 Alpha  occ. eigenvalues --  -91.87740  -8.94309  -6.62720  -6.62613  -6.61242
 Alpha  occ. eigenvalues --   -1.15756  -0.71616  -0.52700  -0.39269
 Alpha virt. eigenvalues --    0.22796   0.29279   0.40339   0.46895   0.52478
 Alpha virt. eigenvalues --    0.52633   0.83015   0.87291   0.92599   0.93897
 Alpha virt. eigenvalues --    1.08701   1.67679   1.78122   1.95529   2.10437

 Mulliken charges:
               1
     1  S    0.128141
     2  H   -0.064071
     3  H   -0.064071
 Sum of Mulliken charges =   0.00000

 Dipole moment (field-independent basis, Debye):
    X=              0.0000    Y=              0.0000    Z=             -1.3107  Tot=              1.3107
 Quadrupole moment (field-independent basis, Debye-Ang):
   XX=            -15.4985   YY=            -11.9992   ZZ=            -13.1655
   XY=              0.0000   XZ=              0.0000   YZ=              0.0000

 Normal termination of Gaussian 09 at Tue Sep 30 07:26:25 2014.
