 Gaussian 09, Revision D.01,
 Gaussian 09:  ES64L-G09RevD.01 24-Apr-2013

 -----------------
 #RHF 6-31G(d',p')
 -----------------

 -------------------
 H2S.r0.60theta103.0
 -------------------
 Symbolic Z-matrix:
 Charge =  0 Multiplicity = 1

                         Standard orientation:
 ---------------------------------------------------------------------
 Center     Atomic      Atomic             Coordinates (Angstroms)
 Number     Number       Type             X           Y           Z
 ---------------------------------------------------------------------
      1         16           0        0.000000    0.000000    0.041501
      2          1           0        0.000000    0.469565   -0.332008
      3          1           0        0.000000   -0.469565   -0.332008
 ---------------------------------------------------------------------

 SCF Done:  E(RHF) =  -395.860809591     A.U. after   10 cycles

 The electronic state is 1-A1.
 Alpha  occ. eigenvalues --  -91.91502  -9.10324  -6.81002  -6.76873  -6.71685
 Alpha  occ. eigenvalues --   -1.24418  -0.80497  -0.51023  -0.41494
 Alpha virt. eigenvalues --    0.20180   0.22975   0.48684   0.50196   0.53831
 Alpha virt. eigenvalues --    0.65750   0.87062   0.88171   0.91604   0.96240
 Alpha virt. eigenvalues --    0.99166   2.04857   2.11627   2.18436   2.29061

 Mulliken charges:
               1
     1  S    0.735621
     2  H   -0.367811
     3  H   -0.367811
 Sum of Mulliken charges =   0.00000

 Dipole moment (field-independent basis, Debye):
    X=              0.0000    Y=              0.0000    Z=             -1.2158  Tot=              1.2158
 Quadrupole moment (field-independent basis, Debye-Ang):
   XX=            -14.5331   YY=            -11.7461   ZZ=            -13.1712
   XY=              0.0000   XZ=              0.0000   YZ=              0.0000

 Normal termination of Gaussian 09 at Tue Sep 30 07:20:26 2014.
