 Gaussian 09, Revision D.01,
 Gaussian 09:  ES64L-G09RevD.01 24-Apr-2013

 -----------------
 #RHF 6-31G(d',p')
 -----------------

 -------------------
 H2S.r1.30theta151.0
 -------------------
 Symbolic Z-matrix:
 Charge =  0 Multiplicity = 1

                         Standard orientation:
 ---------------------------------------------------------------------
 Center     Atomic      Atomic             Coordinates (Angstroms)
 Number     Number       Type             X           Y           Z
 ---------------------------------------------------------------------
      1         16           0        0.000000    0.000000    0.036166
      2          1           0        0.000000    1.258592   -0.289328
      3          1           0        0.000000   -1.258592   -0.289328
 ---------------------------------------------------------------------

 SCF Done:  E(RHF) =  -398.592622900     A.U. after   10 cycles

 The electronic state is 1-A1.
 Alpha  occ. eigenvalues --  -91.93914  -8.95496  -6.63984  -6.63723  -6.63623
 Alpha  occ. eigenvalues --   -0.98532  -0.67552  -0.40003  -0.37882
 Alpha virt. eigenvalues --    0.08274   0.30724   0.41911   0.46483   0.53822
 Alpha virt. eigenvalues --    0.54090   0.82928   0.86658   0.98739   1.03247
 Alpha virt. eigenvalues --    1.03440   1.19107   1.41253   1.60575   1.70966

 Mulliken charges:
               1
     1  S   -0.257096
     2  H    0.128548
     3  H    0.128548
 Sum of Mulliken charges =   0.00000

 Dipole moment (field-independent basis, Debye):
    X=              0.0000    Y=              0.0000    Z=             -1.4969  Tot=              1.4969
 Quadrupole moment (field-independent basis, Debye-Ang):
   XX=            -16.7376   YY=             -9.6290   ZZ=            -15.9369
   XY=              0.0000   XZ=              0.0000   YZ=              0.0000

 Normal termination of Gaussian 09 at Tue Sep 30 07:35:23 2014.
