 Gaussian 09, Revision D.01,
 Gaussian 09:  ES64L-G09RevD.01 24-Apr-2013

 -----------------
 #RHF 6-31G(d',p')
 -----------------

 ------------------
 H2S.r1.45theta86.0
 ------------------
 Symbolic Z-matrix:
 Charge =  0 Multiplicity = 1

                         Standard orientation:
 ---------------------------------------------------------------------
 Center     Atomic      Atomic             Coordinates (Angstroms)
 Number     Number       Type             X           Y           Z
 ---------------------------------------------------------------------
      1         16           0        0.000000    0.000000    0.117829
      2          1           0        0.000000    0.988898   -0.942634
      3          1           0        0.000000   -0.988898   -0.942634
 ---------------------------------------------------------------------

 SCF Done:  E(RHF) =  -398.661660530     A.U. after   10 cycles

 The electronic state is 1-A1.
 Alpha  occ. eigenvalues --  -91.97301  -8.97905  -6.66144  -6.66055  -6.65828
 Alpha  occ. eigenvalues --   -0.95776  -0.54775  -0.50104  -0.38462
 Alpha virt. eigenvalues --    0.13748   0.17790   0.49471   0.50332   0.51866
 Alpha virt. eigenvalues --    0.53430   0.88524   0.89463   0.96009   0.96087
 Alpha virt. eigenvalues --    0.97162   1.22077   1.31207   1.63404   1.65997

 Mulliken charges:
               1
     1  S   -0.069485
     2  H    0.034742
     3  H    0.034742
 Sum of Mulliken charges =   0.00000

 Dipole moment (field-independent basis, Debye):
    X=              0.0000    Y=              0.0000    Z=             -1.2535  Tot=              1.2535
 Quadrupole moment (field-independent basis, Debye-Ang):
   XX=            -16.9480   YY=            -12.7671   ZZ=            -13.4700
   XY=              0.0000   XZ=              0.0000   YZ=              0.0000

 Normal termination of Gaussian 09 at Tue Sep 30 07:37:46 2014.
