 Gaussian 09, Revision D.01,
 Gaussian 09:  ES64L-G09RevD.01 24-Apr-2013

 -----------------
 #RHF 6-31G(d',p')
 -----------------

 -------------------
 H2S.r1.40theta153.0
 -------------------
 Symbolic Z-matrix:
 Charge =  0 Multiplicity = 1

                         Standard orientation:
 ---------------------------------------------------------------------
 Center     Atomic      Atomic             Coordinates (Angstroms)
 Number     Number       Type             X           Y           Z
 ---------------------------------------------------------------------
      1         16           0        0.000000    0.000000    0.036314
      2          1           0        0.000000    1.361318   -0.290510
      3          1           0        0.000000   -1.361318   -0.290510
 ---------------------------------------------------------------------

 SCF Done:  E(RHF) =  -398.584009983     A.U. after   10 cycles

 The electronic state is 1-A1.
 Alpha  occ. eigenvalues --  -91.94905  -8.95965  -6.64383  -6.64200  -6.64088
 Alpha  occ. eigenvalues --   -0.95792  -0.63884  -0.39305  -0.37556
 Alpha virt. eigenvalues --    0.04782   0.27969   0.43543   0.49881   0.54050
 Alpha virt. eigenvalues --    0.54326   0.83219   0.88746   0.98588   1.03906
 Alpha virt. eigenvalues --    1.04065   1.11795   1.34091   1.57840   1.63541

 Mulliken charges:
               1
     1  S   -0.292713
     2  H    0.146356
     3  H    0.146356
 Sum of Mulliken charges =   0.00000

 Dipole moment (field-independent basis, Debye):
    X=              0.0000    Y=              0.0000    Z=             -1.4378  Tot=              1.4378
 Quadrupole moment (field-independent basis, Debye-Ang):
   XX=            -17.0493   YY=             -9.1562   ZZ=            -16.1757
   XY=              0.0000   XZ=              0.0000   YZ=              0.0000

 Normal termination of Gaussian 09 at Tue Sep 30 07:37:29 2014.
