 Gaussian 09, Revision D.01,
 Gaussian 09:  ES64L-G09RevD.01 24-Apr-2013

 -----------------
 #RHF 6-31G(d',p')
 -----------------

 -------------------
 H2S.r0.70theta105.0
 -------------------
 Symbolic Z-matrix:
 Charge =  0 Multiplicity = 1

                         Standard orientation:
 ---------------------------------------------------------------------
 Center     Atomic      Atomic             Coordinates (Angstroms)
 Number     Number       Type             X           Y           Z
 ---------------------------------------------------------------------
      1         16           0        0.000000    0.000000    0.047348
      2          1           0        0.000000    0.555347   -0.378785
      3          1           0        0.000000   -0.555347   -0.378785
 ---------------------------------------------------------------------

 SCF Done:  E(RHF) =  -397.063376530     A.U. after   10 cycles

 The electronic state is 1-A1.
 Alpha  occ. eigenvalues --  -91.86804  -9.00282  -6.70015  -6.67599  -6.64724
 Alpha  occ. eigenvalues --   -1.22440  -0.81306  -0.50223  -0.40486
 Alpha virt. eigenvalues --    0.22308   0.23472   0.49299   0.50099   0.51345
 Alpha virt. eigenvalues --    0.54896   0.86764   0.90143   0.90753   0.96697
 Alpha virt. eigenvalues --    1.02560   1.95635   1.96451   2.12146   2.19370

 Mulliken charges:
               1
     1  S    0.500493
     2  H   -0.250247
     3  H   -0.250247
 Sum of Mulliken charges =   0.00000

 Dipole moment (field-independent basis, Debye):
    X=              0.0000    Y=              0.0000    Z=             -1.3806  Tot=              1.3806
 Quadrupole moment (field-independent basis, Debye-Ang):
   XX=            -14.8670   YY=            -11.6777   ZZ=            -13.3356
   XY=              0.0000   XZ=              0.0000   YZ=              0.0000

 Normal termination of Gaussian 09 at Tue Sep 30 07:22:30 2014.
