 Gaussian 09, Revision D.01,
 Gaussian 09:  ES64L-G09RevD.01 24-Apr-2013

 -----------------
 #RHF 6-31G(d',p')
 -----------------

 -------------------
 H2S.r0.95theta119.0
 -------------------
 Symbolic Z-matrix:
 Charge =  0 Multiplicity = 1

                         Standard orientation:
 ---------------------------------------------------------------------
 Center     Atomic      Atomic             Coordinates (Angstroms)
 Number     Number       Type             X           Y           Z
 ---------------------------------------------------------------------
      1         16           0        0.000000    0.000000    0.053573
      2          1           0        0.000000    0.818548   -0.428588
      3          1           0        0.000000   -0.818548   -0.428588
 ---------------------------------------------------------------------

 SCF Done:  E(RHF) =  -398.333457980     A.U. after    9 cycles

 The electronic state is 1-A1.
 Alpha  occ. eigenvalues --  -91.88714  -8.94347  -6.63217  -6.62184  -6.61637
 Alpha  occ. eigenvalues --   -1.11808  -0.78115  -0.46792  -0.39207
 Alpha virt. eigenvalues --    0.25418   0.25999   0.37722   0.45124   0.52376
 Alpha virt. eigenvalues --    0.52690   0.87185   0.89095   0.93170   0.98444
 Alpha virt. eigenvalues --    0.99993   1.64524   1.65316   1.90232   1.95249

 Mulliken charges:
               1
     1  S    0.065532
     2  H   -0.032766
     3  H   -0.032766
 Sum of Mulliken charges =   0.00000

 Dipole moment (field-independent basis, Debye):
    X=              0.0000    Y=              0.0000    Z=             -1.6332  Tot=              1.6332
 Quadrupole moment (field-independent basis, Debye-Ang):
   XX=            -15.5804   YY=            -11.3830   ZZ=            -14.1306
   XY=              0.0000   XZ=              0.0000   YZ=              0.0000

 Normal termination of Gaussian 09 at Tue Sep 30 07:27:47 2014.
