 Gaussian 09, Revision D.01,
 Gaussian 09:  ES64L-G09RevD.01 24-Apr-2013

 -----------------
 #RHF 6-31G(d',p')
 -----------------

 -------------------
 H2S.r0.90theta116.0
 -------------------
 Symbolic Z-matrix:
 Charge =  0 Multiplicity = 1

                         Standard orientation:
 ---------------------------------------------------------------------
 Center     Atomic      Atomic             Coordinates (Angstroms)
 Number     Number       Type             X           Y           Z
 ---------------------------------------------------------------------
      1         16           0        0.000000    0.000000    0.052992
      2          1           0        0.000000    0.763243   -0.423935
      3          1           0        0.000000   -0.763243   -0.423935
 ---------------------------------------------------------------------

 SCF Done:  E(RHF) =  -398.197565482     A.U. after    9 cycles

 The electronic state is 1-A1.
 Alpha  occ. eigenvalues --  -91.87859  -8.94577  -6.63560  -6.62326  -6.61568
 Alpha  occ. eigenvalues --   -1.14057  -0.79306  -0.47508  -0.39405
 Alpha virt. eigenvalues --    0.24975   0.26339   0.38893   0.45698   0.52143
 Alpha virt. eigenvalues --    0.52487   0.87778   0.88727   0.92393   0.98055
 Alpha virt. eigenvalues --    1.00984   1.69591   1.72725   1.92614   2.01487

 Mulliken charges:
               1
     1  S    0.140910
     2  H   -0.070455
     3  H   -0.070455
 Sum of Mulliken charges =   0.00000

 Dipole moment (field-independent basis, Debye):
    X=              0.0000    Y=              0.0000    Z=             -1.6028  Tot=              1.6028
 Quadrupole moment (field-independent basis, Debye-Ang):
   XX=            -15.4364   YY=            -11.4644   ZZ=            -13.9505
   XY=              0.0000   XZ=              0.0000   YZ=              0.0000

 Normal termination of Gaussian 09 at Tue Sep 30 07:26:43 2014.
