 Gaussian 09, Revision D.01,
 Gaussian 09:  ES64L-G09RevD.01 24-Apr-2013

 -----------------
 #RHF 6-31G(d',p')
 -----------------

 -------------------
 H2S.r1.10theta150.0
 -------------------
 Symbolic Z-matrix:
 Charge =  0 Multiplicity = 1

                         Standard orientation:
 ---------------------------------------------------------------------
 Center     Atomic      Atomic             Coordinates (Angstroms)
 Number     Number       Type             X           Y           Z
 ---------------------------------------------------------------------
      1         16           0        0.000000    0.000000    0.031633
      2          1           0        0.000000    1.062518   -0.253068
      3          1           0        0.000000   -1.062518   -0.253068
 ---------------------------------------------------------------------

 SCF Done:  E(RHF) =  -398.511520622     A.U. after   10 cycles

 The electronic state is 1-A1.
 Alpha  occ. eigenvalues --  -91.91344  -8.94758  -6.63519  -6.62796  -6.62694
 Alpha  occ. eigenvalues --   -1.05355  -0.75670  -0.41006  -0.38720
 Alpha virt. eigenvalues --    0.14785   0.33279   0.38589   0.43702   0.53093
 Alpha virt. eigenvalues --    0.53371   0.81890   0.84106   0.98524   1.02302
 Alpha virt. eigenvalues --    1.02462   1.36884   1.55375   1.68430   1.90321

 Mulliken charges:
               1
     1  S   -0.169244
     2  H    0.084622
     3  H    0.084622
 Sum of Mulliken charges =   0.00000

 Dipole moment (field-independent basis, Debye):
    X=              0.0000    Y=              0.0000    Z=             -1.5070  Tot=              1.5070
 Quadrupole moment (field-independent basis, Debye-Ang):
   XX=            -16.0608   YY=            -10.4189   ZZ=            -15.4355
   XY=              0.0000   XZ=              0.0000   YZ=              0.0000

 Normal termination of Gaussian 09 at Tue Sep 30 07:31:13 2014.
