 Gaussian 09, Revision D.01,
 Gaussian 09:  ES64L-G09RevD.01 24-Apr-2013

 -----------------
 #RHF 6-31G(d',p')
 -----------------

 -------------------
 H2S.r1.25theta105.0
 -------------------
 Symbolic Z-matrix:
 Charge =  0 Multiplicity = 1

                         Standard orientation:
 ---------------------------------------------------------------------
 Center     Atomic      Atomic             Coordinates (Angstroms)
 Number     Number       Type             X           Y           Z
 ---------------------------------------------------------------------
      1         16           0        0.000000    0.000000    0.084550
      2          1           0        0.000000    0.991692   -0.676402
      3          1           0        0.000000   -0.991692   -0.676402
 ---------------------------------------------------------------------

 SCF Done:  E(RHF) =  -398.664760367     A.U. after   10 cycles

 The electronic state is 1-A1.
 Alpha  occ. eigenvalues --  -91.94090  -8.95777  -6.64132  -6.63949  -6.63708
 Alpha  occ. eigenvalues --   -1.00624  -0.64389  -0.48249  -0.38376
 Alpha virt. eigenvalues --    0.20485   0.22268   0.43963   0.46544   0.52164
 Alpha virt. eigenvalues --    0.53546   0.88364   0.90719   0.91122   0.96797
 Alpha virt. eigenvalues --    0.99247   1.35501   1.54971   1.59776   1.76303

 Mulliken charges:
               1
     1  S   -0.067705
     2  H    0.033852
     3  H    0.033852
 Sum of Mulliken charges =   0.00000

 Dipole moment (field-independent basis, Debye):
    X=              0.0000    Y=              0.0000    Z=             -1.4541  Tot=              1.4541
 Quadrupole moment (field-independent basis, Debye-Ang):
   XX=            -16.4471   YY=            -11.7343   ZZ=            -14.1353
   XY=              0.0000   XZ=              0.0000   YZ=              0.0000

 Normal termination of Gaussian 09 at Tue Sep 30 07:33:49 2014.
