 Gaussian 09, Revision D.01,
 Gaussian 09:  ES64L-G09RevD.01 24-Apr-2013

 -----------------
 #RHF 6-31G(d',p')
 -----------------

 ------------------
 H2S.r0.60theta83.0
 ------------------
 Symbolic Z-matrix:
 Charge =  0 Multiplicity = 1

                         Standard orientation:
 ---------------------------------------------------------------------
 Center     Atomic      Atomic             Coordinates (Angstroms)
 Number     Number       Type             X           Y           Z
 ---------------------------------------------------------------------
      1         16           0        0.000000    0.000000    0.049930
      2          1           0        0.000000    0.397572   -0.399443
      3          1           0        0.000000   -0.397572   -0.399443
 ---------------------------------------------------------------------

 SCF Done:  E(RHF) =  -395.835877333     A.U. after    9 cycles

 The electronic state is 1-A1.
 Alpha  occ. eigenvalues --  -91.91551  -9.10467  -6.79162  -6.78390  -6.71575
 Alpha  occ. eigenvalues --   -1.27882  -0.72939  -0.54851  -0.41476
 Alpha virt. eigenvalues --    0.20172   0.22915   0.47835   0.50206   0.53593
 Alpha virt. eigenvalues --    0.68362   0.86673   0.86987   0.93795   0.94352
 Alpha virt. eigenvalues --    0.99777   2.05518   2.08120   2.18517   2.30196

 Mulliken charges:
               1
     1  S    0.664475
     2  H   -0.332238
     3  H   -0.332238
 Sum of Mulliken charges =   0.00000

 Dipole moment (field-independent basis, Debye):
    X=              0.0000    Y=              0.0000    Z=             -1.0305  Tot=              1.0305
 Quadrupole moment (field-independent basis, Debye-Ang):
   XX=            -14.5980   YY=            -11.9877   ZZ=            -12.7526
   XY=              0.0000   XZ=              0.0000   YZ=              0.0000

 Normal termination of Gaussian 09 at Tue Sep 30 07:20:13 2014.
