 Gaussian 09, Revision D.01,
 Gaussian 09:  ES64L-G09RevD.01 24-Apr-2013

 -----------------
 #RHF 6-31G(d',p')
 -----------------

 -------------------
 H2S.r0.95theta106.0
 -------------------
 Symbolic Z-matrix:
 Charge =  0 Multiplicity = 1

                         Standard orientation:
 ---------------------------------------------------------------------
 Center     Atomic      Atomic             Coordinates (Angstroms)
 Number     Number       Type             X           Y           Z
 ---------------------------------------------------------------------
      1         16           0        0.000000    0.000000    0.063525
      2          1           0        0.000000    0.758704   -0.508199
      3          1           0        0.000000   -0.758704   -0.508199
 ---------------------------------------------------------------------

 SCF Done:  E(RHF) =  -398.345625035     A.U. after    9 cycles

 The electronic state is 1-A1.
 Alpha  occ. eigenvalues --  -91.88607  -8.94167  -6.62839  -6.62180  -6.61424
 Alpha  occ. eigenvalues --   -1.12214  -0.75246  -0.49232  -0.39110
 Alpha virt. eigenvalues --    0.23930   0.29152   0.37962   0.45602   0.52279
 Alpha virt. eigenvalues --    0.52790   0.86549   0.89322   0.90011   0.96560
 Alpha virt. eigenvalues --    1.03846   1.63822   1.75396   1.87414   1.95528

 Mulliken charges:
               1
     1  S    0.077078
     2  H   -0.038539
     3  H   -0.038539
 Sum of Mulliken charges =   0.00000

 Dipole moment (field-independent basis, Debye):
    X=              0.0000    Y=              0.0000    Z=             -1.5153  Tot=              1.5153
 Quadrupole moment (field-independent basis, Debye-Ang):
   XX=            -15.6001   YY=            -11.6326   ZZ=            -13.7485
   XY=              0.0000   XZ=              0.0000   YZ=              0.0000

 Normal termination of Gaussian 09 at Tue Sep 30 07:27:38 2014.
