 Gaussian 09, Revision D.01,
 Gaussian 09:  ES64L-G09RevD.01 24-Apr-2013

 -----------------
 #RHF 6-31G(d',p')
 -----------------

 -------------------
 H2S.r1.80theta135.0
 -------------------
 Symbolic Z-matrix:
 Charge =  0 Multiplicity = 1

                         Standard orientation:
 ---------------------------------------------------------------------
 Center     Atomic      Atomic             Coordinates (Angstroms)
 Number     Number       Type             X           Y           Z
 ---------------------------------------------------------------------
      1         16           0        0.000000    0.000000    0.076537
      2          1           0        0.000000    1.662983   -0.612293
      3          1           0        0.000000   -1.662983   -0.612293
 ---------------------------------------------------------------------

 SCF Done:  E(RHF) =  -398.518043567     A.U. after   11 cycles

 The electronic state is 1-A1.
 Alpha  occ. eigenvalues --  -91.99770  -8.99812  -6.67975  -6.67896  -6.67635
 Alpha  occ. eigenvalues --   -0.90333  -0.51498  -0.40492  -0.38315
 Alpha virt. eigenvalues --   -0.00250   0.11711   0.49136   0.53191   0.53208
 Alpha virt. eigenvalues --    0.56204   0.91046   0.95922   0.99083   1.02362
 Alpha virt. eigenvalues --    1.03019   1.06290   1.07313   1.53938   1.55193

 Mulliken charges:
               1
     1  S   -0.181291
     2  H    0.090645
     3  H    0.090645
 Sum of Mulliken charges =   0.00000

 Dipole moment (field-independent basis, Debye):
    X=              0.0000    Y=              0.0000    Z=             -1.0509  Tot=              1.0509
 Quadrupole moment (field-independent basis, Debye-Ang):
   XX=            -17.7339   YY=            -10.0328   ZZ=            -15.6103
   XY=              0.0000   XZ=              0.0000   YZ=              0.0000

 Normal termination of Gaussian 09 at Tue Sep 30 07:45:39 2014.
