 Gaussian 09, Revision D.01,
 Gaussian 09:  ES64L-G09RevD.01 24-Apr-2013

 -----------------
 #RHF 6-31G(d',p')
 -----------------

 -------------------
 H2S.r0.60theta139.0
 -------------------
 Symbolic Z-matrix:
 Charge =  0 Multiplicity = 1

                         Standard orientation:
 ---------------------------------------------------------------------
 Center     Atomic      Atomic             Coordinates (Angstroms)
 Number     Number       Type             X           Y           Z
 ---------------------------------------------------------------------
      1         16           0        0.000000    0.000000    0.023347
      2          1           0        0.000000    0.562003   -0.186777
      3          1           0        0.000000   -0.562003   -0.186777
 ---------------------------------------------------------------------

 SCF Done:  E(RHF) =  -395.831096056     A.U. after   10 cycles

 The electronic state is 1-A1.
 Alpha  occ. eigenvalues --  -91.92382  -9.11268  -6.86013  -6.74591  -6.72940
 Alpha  occ. eigenvalues --   -1.22775  -0.87791  -0.45288  -0.41977
 Alpha virt. eigenvalues --    0.18417   0.24040   0.49728   0.49846   0.55203
 Alpha virt. eigenvalues --    0.59107   0.82231   0.86923   0.93355   0.98895
 Alpha virt. eigenvalues --    0.99007   1.99320   2.08146   2.09996   2.36013

 Mulliken charges:
               1
     1  S    0.806764
     2  H   -0.403382
     3  H   -0.403382
 Sum of Mulliken charges =   0.00000

 Dipole moment (field-independent basis, Debye):
    X=              0.0000    Y=              0.0000    Z=             -1.3454  Tot=              1.3454
 Quadrupole moment (field-independent basis, Debye-Ang):
   XX=            -14.3902   YY=            -11.6972   ZZ=            -13.7960
   XY=              0.0000   XZ=              0.0000   YZ=              0.0000

 Normal termination of Gaussian 09 at Tue Sep 30 07:20:51 2014.
