 Gaussian 09, Revision D.01,
 Gaussian 09:  ES64L-G09RevD.01 24-Apr-2013

 -----------------
 #RHF 6-31G(d',p')
 -----------------

 -------------------
 H2S.r0.85theta103.0
 -------------------
 Symbolic Z-matrix:
 Charge =  0 Multiplicity = 1

                         Standard orientation:
 ---------------------------------------------------------------------
 Center     Atomic      Atomic             Coordinates (Angstroms)
 Number     Number       Type             X           Y           Z
 ---------------------------------------------------------------------
      1         16           0        0.000000    0.000000    0.058793
      2          1           0        0.000000    0.665217   -0.470344
      3          1           0        0.000000   -0.665217   -0.470344
 ---------------------------------------------------------------------

 SCF Done:  E(RHF) =  -398.022279714     A.U. after    9 cycles

 The electronic state is 1-A1.
 Alpha  occ. eigenvalues --  -91.87009  -8.94949  -6.63794  -6.62868  -6.61525
 Alpha  occ. eigenvalues --   -1.16855  -0.77618  -0.50119  -0.39538
 Alpha virt. eigenvalues --    0.23765   0.27026   0.42107   0.46674   0.52098
 Alpha virt. eigenvalues --    0.52343   0.85704   0.89715   0.90208   0.96273
 Alpha virt. eigenvalues --    1.05322   1.74632   1.83451   2.00175   2.01292

 Mulliken charges:
               1
     1  S    0.215809
     2  H   -0.107904
     3  H   -0.107904
 Sum of Mulliken charges =   0.00000

 Dipole moment (field-independent basis, Debye):
    X=              0.0000    Y=              0.0000    Z=             -1.4581  Tot=              1.4581
 Quadrupole moment (field-independent basis, Debye-Ang):
   XX=            -15.3227   YY=            -11.6820   ZZ=            -13.5076
   XY=              0.0000   XZ=              0.0000   YZ=              0.0000

 Normal termination of Gaussian 09 at Tue Sep 30 07:25:33 2014.
