 Gaussian 09, Revision D.01,
 Gaussian 09:  ES64L-G09RevD.01 24-Apr-2013

 -----------------
 #RHF 6-31G(d',p')
 -----------------

 -------------------
 H2S.r0.70theta112.0
 -------------------
 Symbolic Z-matrix:
 Charge =  0 Multiplicity = 1

                         Standard orientation:
 ---------------------------------------------------------------------
 Center     Atomic      Atomic             Coordinates (Angstroms)
 Number     Number       Type             X           Y           Z
 ---------------------------------------------------------------------
      1         16           0        0.000000    0.000000    0.043493
      2          1           0        0.000000    0.580326   -0.347942
      3          1           0        0.000000   -0.580326   -0.347942
 ---------------------------------------------------------------------

 SCF Done:  E(RHF) =  -397.060780026     A.U. after   10 cycles

 The electronic state is 1-A1.
 Alpha  occ. eigenvalues --  -91.86902  -9.00421  -6.70618  -6.67309  -6.64888
 Alpha  occ. eigenvalues --   -1.21929  -0.83279  -0.48933  -0.40558
 Alpha virt. eigenvalues --    0.22032   0.23788   0.49474   0.50271   0.51281
 Alpha virt. eigenvalues --    0.53061   0.87756   0.89642   0.91266   0.97526
 Alpha virt. eigenvalues --    1.01011   1.94550   1.96855   2.14546   2.15630

 Mulliken charges:
               1
     1  S    0.522191
     2  H   -0.261096
     3  H   -0.261096
 Sum of Mulliken charges =   0.00000

 Dipole moment (field-independent basis, Debye):
    X=              0.0000    Y=              0.0000    Z=             -1.4493  Tot=              1.4493
 Quadrupole moment (field-independent basis, Debye-Ang):
   XX=            -14.8416   YY=            -11.6195   ZZ=            -13.4915
   XY=              0.0000   XZ=              0.0000   YZ=              0.0000

 Normal termination of Gaussian 09 at Tue Sep 30 07:22:35 2014.
