 Gaussian 09, Revision D.01,
 Gaussian 09:  ES64L-G09RevD.01 24-Apr-2013

 -----------------
 #RHF 6-31G(d',p')
 -----------------

 -------------------
 H2S.r1.30theta138.0
 -------------------
 Symbolic Z-matrix:
 Charge =  0 Multiplicity = 1

                         Standard orientation:
 ---------------------------------------------------------------------
 Center     Atomic      Atomic             Coordinates (Angstroms)
 Number     Number       Type             X           Y           Z
 ---------------------------------------------------------------------
      1         16           0        0.000000    0.000000    0.051764
      2          1           0        0.000000    1.213655   -0.414114
      3          1           0        0.000000   -1.213655   -0.414114
 ---------------------------------------------------------------------

 SCF Done:  E(RHF) =  -398.622321772     A.U. after   10 cycles

 The electronic state is 1-A1.
 Alpha  occ. eigenvalues --  -91.94343  -8.95832  -6.64258  -6.64021  -6.63878
 Alpha  occ. eigenvalues --   -0.98730  -0.66800  -0.42190  -0.38094
 Alpha virt. eigenvalues --    0.11696   0.26532   0.42196   0.45881   0.53671
 Alpha virt. eigenvalues --    0.53700   0.85685   0.87637   0.98540   1.01096
 Alpha virt. eigenvalues --    1.01802   1.25289   1.37205   1.64718   1.74050

 Mulliken charges:
               1
     1  S   -0.172945
     2  H    0.086472
     3  H    0.086472
 Sum of Mulliken charges =   0.00000

 Dipole moment (field-independent basis, Debye):
    X=              0.0000    Y=              0.0000    Z=             -1.5920  Tot=              1.5920
 Quadrupole moment (field-independent basis, Debye-Ang):
   XX=            -16.6698   YY=            -10.3172   ZZ=            -15.4187
   XY=              0.0000   XZ=              0.0000   YZ=              0.0000

 Normal termination of Gaussian 09 at Tue Sep 30 07:35:14 2014.
