 Gaussian 09, Revision D.01,
 Gaussian 09:  ES64L-G09RevD.01 24-Apr-2013

 -----------------
 #RHF 6-31G(d',p')
 -----------------

 -------------------
 H2S.r1.80theta152.0
 -------------------
 Symbolic Z-matrix:
 Charge =  0 Multiplicity = 1

                         Standard orientation:
 ---------------------------------------------------------------------
 Center     Atomic      Atomic             Coordinates (Angstroms)
 Number     Number       Type             X           Y           Z
 ---------------------------------------------------------------------
      1         16           0        0.000000    0.000000    0.048384
      2          1           0        0.000000    1.746532   -0.387075
      3          1           0        0.000000   -1.746532   -0.387075
 ---------------------------------------------------------------------

 SCF Done:  E(RHF) =  -398.485221680     A.U. after   11 cycles

 The electronic state is 1-A1.
 Alpha  occ. eigenvalues --  -91.99017  -8.99136  -6.67316  -6.67219  -6.66972
 Alpha  occ. eigenvalues --   -0.89927  -0.51972  -0.38171  -0.37916
 Alpha virt. eigenvalues --   -0.03604   0.13783   0.48338   0.53494   0.53563
 Alpha virt. eigenvalues --    0.60558   0.88858   0.97083   0.98932   1.03277
 Alpha virt. eigenvalues --    1.03796   1.03990   1.07810   1.54038   1.54516

 Mulliken charges:
               1
     1  S   -0.249838
     2  H    0.124919
     3  H    0.124919
 Sum of Mulliken charges =   0.00000

 Dipole moment (field-independent basis, Debye):
    X=              0.0000    Y=              0.0000    Z=             -0.9737  Tot=              0.9737
 Quadrupole moment (field-independent basis, Debye-Ang):
   XX=            -17.8282   YY=             -9.0098   ZZ=            -16.1892
   XY=              0.0000   XZ=              0.0000   YZ=              0.0000

 Normal termination of Gaussian 09 at Tue Sep 30 07:45:50 2014.
