 Gaussian 09, Revision D.01,
 Gaussian 09:  ES64L-G09RevD.01 24-Apr-2013

 -----------------
 #RHF 6-31G(d',p')
 -----------------

 -------------------
 H2S.r1.60theta126.0
 -------------------
 Symbolic Z-matrix:
 Charge =  0 Multiplicity = 1

                         Standard orientation:
 ---------------------------------------------------------------------
 Center     Atomic      Atomic             Coordinates (Angstroms)
 Number     Number       Type             X           Y           Z
 ---------------------------------------------------------------------
      1         16           0        0.000000    0.000000    0.080709
      2          1           0        0.000000    1.425610   -0.645675
      3          1           0        0.000000   -1.425610   -0.645675
 ---------------------------------------------------------------------

 SCF Done:  E(RHF) =  -398.596475149     A.U. after   10 cycles

 The electronic state is 1-A1.
 Alpha  occ. eigenvalues --  -91.98240  -8.98532  -6.66759  -6.66665  -6.66450
 Alpha  occ. eigenvalues --   -0.92577  -0.56070  -0.42905  -0.38152
 Alpha virt. eigenvalues --    0.06177   0.15896   0.48180   0.50927   0.52782
 Alpha virt. eigenvalues --    0.53497   0.89441   0.94487   0.95307   1.00343
 Alpha virt. eigenvalues --    1.01859   1.15405   1.16093   1.56516   1.59890

 Mulliken charges:
               1
     1  S   -0.148018
     2  H    0.074009
     3  H    0.074009
 Sum of Mulliken charges =   0.00000

 Dipole moment (field-independent basis, Debye):
    X=              0.0000    Y=              0.0000    Z=             -1.2898  Tot=              1.2898
 Quadrupole moment (field-independent basis, Debye-Ang):
   XX=            -17.3465   YY=            -10.6251   ZZ=            -15.2169
   XY=              0.0000   XZ=              0.0000   YZ=              0.0000

 Normal termination of Gaussian 09 at Tue Sep 30 07:41:21 2014.
