 Gaussian 09, Revision D.01,
 Gaussian 09:  ES64L-G09RevD.01 24-Apr-2013

 -----------------
 #RHF 6-31G(d',p')
 -----------------

 -------------------
 H2S.r1.60theta140.0
 -------------------
 Symbolic Z-matrix:
 Charge =  0 Multiplicity = 1

                         Standard orientation:
 ---------------------------------------------------------------------
 Center     Atomic      Atomic             Coordinates (Angstroms)
 Number     Number       Type             X           Y           Z
 ---------------------------------------------------------------------
      1         16           0        0.000000    0.000000    0.060804
      2          1           0        0.000000    1.503508   -0.486429
      3          1           0        0.000000   -1.503508   -0.486429
 ---------------------------------------------------------------------

 SCF Done:  E(RHF) =  -398.570757150     A.U. after   10 cycles

 The electronic state is 1-A1.
 Alpha  occ. eigenvalues --  -91.97720  -8.98079  -6.66324  -6.66221  -6.66018
 Alpha  occ. eigenvalues --   -0.92331  -0.56909  -0.40748  -0.37893
 Alpha virt. eigenvalues --    0.02825   0.18445   0.46868   0.52732   0.53471
 Alpha virt. eigenvalues --    0.53680   0.86987   0.94601   0.96483   1.02576
 Alpha virt. eigenvalues --    1.03146   1.10605   1.17281   1.57556   1.58519

 Mulliken charges:
               1
     1  S   -0.200292
     2  H    0.100146
     3  H    0.100146
 Sum of Mulliken charges =   0.00000

 Dipole moment (field-independent basis, Debye):
    X=              0.0000    Y=              0.0000    Z=             -1.3023  Tot=              1.3023
 Quadrupole moment (field-independent basis, Debye-Ang):
   XX=            -17.4154   YY=             -9.8163   ZZ=            -15.7567
   XY=              0.0000   XZ=              0.0000   YZ=              0.0000

 Normal termination of Gaussian 09 at Tue Sep 30 07:41:31 2014.
