 Gaussian 09, Revision D.01,
 Gaussian 09:  ES64L-G09RevD.01 24-Apr-2013

 -----------------
 #RHF 6-31G(d',p')
 -----------------

 ------------------
 H2S.r1.70theta81.0
 ------------------
 Symbolic Z-matrix:
 Charge =  0 Multiplicity = 1

                         Standard orientation:
 ---------------------------------------------------------------------
 Center     Atomic      Atomic             Coordinates (Angstroms)
 Number     Number       Type             X           Y           Z
 ---------------------------------------------------------------------
      1         16           0        0.000000    0.000000    0.143632
      2          1           0        0.000000    1.104062   -1.149058
      3          1           0        0.000000   -1.104062   -1.149058
 ---------------------------------------------------------------------

 SCF Done:  E(RHF) =  -398.588231667     A.U. after   10 cycles

 The electronic state is 1-A1.
 Alpha  occ. eigenvalues --  -91.99956  -9.00008  -6.68175  -6.68113  -6.67849
 Alpha  occ. eigenvalues --   -0.91871  -0.48412  -0.48161  -0.38705
 Alpha virt. eigenvalues --    0.07531   0.10317   0.48704   0.51998   0.53024
 Alpha virt. eigenvalues --    0.57989   0.91076   0.93953   0.95488   0.99189
 Alpha virt. eigenvalues --    0.99884   1.10633   1.13855   1.55737   1.59653

 Mulliken charges:
               1
     1  S   -0.112150
     2  H    0.056075
     3  H    0.056075
 Sum of Mulliken charges =   0.00000

 Dipole moment (field-independent basis, Debye):
    X=              0.0000    Y=              0.0000    Z=             -1.1973  Tot=              1.1973
 Quadrupole moment (field-independent basis, Debye-Ang):
   XX=            -17.4832   YY=            -13.2648   ZZ=            -13.0951
   XY=              0.0000   XZ=              0.0000   YZ=              0.0000

 Normal termination of Gaussian 09 at Tue Sep 30 07:42:56 2014.
