 Gaussian 09, Revision D.01,
 Gaussian 09:  ES64L-G09RevD.01 24-Apr-2013

 -----------------
 #RHF 6-31G(d',p')
 -----------------

 -------------------
 H2S.r0.75theta149.0
 -------------------
 Symbolic Z-matrix:
 Charge =  0 Multiplicity = 1

                         Standard orientation:
 ---------------------------------------------------------------------
 Center     Atomic      Atomic             Coordinates (Angstroms)
 Number     Number       Type             X           Y           Z
 ---------------------------------------------------------------------
      1         16           0        0.000000    0.000000    0.022270
      2          1           0        0.000000    0.722723   -0.178159
      3          1           0        0.000000   -0.722723   -0.178159
 ---------------------------------------------------------------------

 SCF Done:  E(RHF) =  -397.411134449     A.U. after   10 cycles

 The electronic state is 1-A1.
 Alpha  occ. eigenvalues --  -91.87201  -8.98898  -6.70016  -6.64840  -6.64410
 Alpha  occ. eigenvalues --   -1.19398  -0.88483  -0.42876  -0.40707
 Alpha virt. eigenvalues --    0.18979   0.26089   0.43169   0.51171   0.51361
 Alpha virt. eigenvalues --    0.54330   0.82413   0.84481   0.96494   1.00683
 Alpha virt. eigenvalues --    1.00734   1.76901   1.86231   1.93931   2.30561

 Mulliken charges:
               1
     1  S    0.404476
     2  H   -0.202238
     3  H   -0.202238
 Sum of Mulliken charges =   0.00000

 Dipole moment (field-independent basis, Debye):
    X=              0.0000    Y=              0.0000    Z=             -1.3809  Tot=              1.3809
 Quadrupole moment (field-independent basis, Debye-Ang):
   XX=            -14.8534   YY=            -11.4254   ZZ=            -14.3901
   XY=              0.0000   XZ=              0.0000   YZ=              0.0000

 Normal termination of Gaussian 09 at Tue Sep 30 07:24:01 2014.
