 Gaussian 09, Revision D.01,
 Gaussian 09:  ES64L-G09RevD.01 24-Apr-2013

 -----------------
 #RHF 6-31G(d',p')
 -----------------

 ------------------
 H2S.r1.00theta98.0
 ------------------
 Symbolic Z-matrix:
 Charge =  0 Multiplicity = 1

                         Standard orientation:
 ---------------------------------------------------------------------
 Center     Atomic      Atomic             Coordinates (Angstroms)
 Number     Number       Type             X           Y           Z
 ---------------------------------------------------------------------
      1         16           0        0.000000    0.000000    0.072895
      2          1           0        0.000000    0.754710   -0.583164
      3          1           0        0.000000   -0.754710   -0.583164
 ---------------------------------------------------------------------

 SCF Done:  E(RHF) =  -398.453185163     A.U. after    9 cycles

 The electronic state is 1-A1.
 Alpha  occ. eigenvalues --  -91.89501  -8.94095  -6.62583  -6.62253  -6.61551
 Alpha  occ. eigenvalues --   -1.10376  -0.71395  -0.50597  -0.38901
 Alpha virt. eigenvalues --    0.22889   0.31026   0.37423   0.45942   0.52367
 Alpha virt. eigenvalues --    0.53016   0.84224   0.88462   0.90707   0.95218
 Alpha virt. eigenvalues --    1.05989   1.58134   1.72419   1.89155   1.89847

 Mulliken charges:
               1
     1  S    0.034483
     2  H   -0.017241
     3  H   -0.017241
 Sum of Mulliken charges =   0.00000

 Dipole moment (field-independent basis, Debye):
    X=              0.0000    Y=              0.0000    Z=             -1.4290  Tot=              1.4290
 Quadrupole moment (field-independent basis, Debye-Ang):
   XX=            -15.7526   YY=            -11.8402   ZZ=            -13.5747
   XY=              0.0000   XZ=              0.0000   YZ=              0.0000

 Normal termination of Gaussian 09 at Tue Sep 30 07:28:34 2014.
