 Gaussian 09, Revision D.01,
 Gaussian 09:  ES64L-G09RevD.01 24-Apr-2013

 -----------------
 #RHF 6-31G(d',p')
 -----------------

 -------------------
 H2S.r1.70theta154.0
 -------------------
 Symbolic Z-matrix:
 Charge =  0 Multiplicity = 1

                         Standard orientation:
 ---------------------------------------------------------------------
 Center     Atomic      Atomic             Coordinates (Angstroms)
 Number     Number       Type             X           Y           Z
 ---------------------------------------------------------------------
      1         16           0        0.000000    0.000000    0.042491
      2          1           0        0.000000    1.656429   -0.339926
      3          1           0        0.000000   -1.656429   -0.339926
 ---------------------------------------------------------------------

 SCF Done:  E(RHF) =  -398.510348056     A.U. after   11 cycles

 The electronic state is 1-A1.
 Alpha  occ. eigenvalues --  -91.97890  -8.98153  -6.66385  -6.66272  -6.66063
 Alpha  occ. eigenvalues --   -0.90688  -0.54511  -0.38212  -0.37586
 Alpha virt. eigenvalues --   -0.02375   0.17348   0.47390   0.53812   0.53967
 Alpha virt. eigenvalues --    0.58923   0.86427   0.96791   0.97199   1.03576
 Alpha virt. eigenvalues --    1.04251   1.04388   1.12820   1.54736   1.55642

 Mulliken charges:
               1
     1  S   -0.279710
     2  H    0.139855
     3  H    0.139855
 Sum of Mulliken charges =   0.00000

 Dipole moment (field-independent basis, Debye):
    X=              0.0000    Y=              0.0000    Z=             -1.1137  Tot=              1.1137
 Quadrupole moment (field-independent basis, Debye-Ang):
   XX=            -17.7024   YY=             -8.7724   ZZ=            -16.2962
   XY=              0.0000   XZ=              0.0000   YZ=              0.0000

 Normal termination of Gaussian 09 at Tue Sep 30 07:43:46 2014.
