 Gaussian 09, Revision D.01,
 Gaussian 09:  ES64L-G09RevD.01 24-Apr-2013

 -----------------
 #RHF 6-31G(d',p')
 -----------------

 ------------------
 H2S.r1.45theta93.0
 ------------------
 Symbolic Z-matrix:
 Charge =  0 Multiplicity = 1

                         Standard orientation:
 ---------------------------------------------------------------------
 Center     Atomic      Atomic             Coordinates (Angstroms)
 Number     Number       Type             X           Y           Z
 ---------------------------------------------------------------------
      1         16           0        0.000000    0.000000    0.110902
      2          1           0        0.000000    1.051793   -0.887213
      3          1           0        0.000000   -1.051793   -0.887213
 ---------------------------------------------------------------------

 SCF Done:  E(RHF) =  -398.663142703     A.U. after   10 cycles

 The electronic state is 1-A1.
 Alpha  occ. eigenvalues --  -91.97228  -8.97834  -6.66084  -6.65982  -6.65767
 Alpha  occ. eigenvalues --   -0.95624  -0.56120  -0.48982  -0.38405
 Alpha virt. eigenvalues --    0.14528   0.17248   0.49068   0.50554   0.51591
 Alpha virt. eigenvalues --    0.53463   0.89323   0.90071   0.95207   0.96759
 Alpha virt. eigenvalues --    0.96907   1.21500   1.33571   1.59726   1.64117

 Mulliken charges:
               1
     1  S   -0.077279
     2  H    0.038640
     3  H    0.038640
 Sum of Mulliken charges =   0.00000

 Dipole moment (field-independent basis, Debye):
    X=              0.0000    Y=              0.0000    Z=             -1.2844  Tot=              1.2844
 Quadrupole moment (field-independent basis, Debye-Ang):
   XX=            -16.9495   YY=            -12.3917   ZZ=            -13.7786
   XY=              0.0000   XZ=              0.0000   YZ=              0.0000

 Normal termination of Gaussian 09 at Tue Sep 30 07:37:51 2014.
