 Gaussian 09, Revision D.01,
 Gaussian 09:  ES64L-G09RevD.01 24-Apr-2013

 -----------------
 #RHF 6-31G(d',p')
 -----------------

 -------------------
 H2S.r1.20theta102.0
 -------------------
 Symbolic Z-matrix:
 Charge =  0 Multiplicity = 1

                         Standard orientation:
 ---------------------------------------------------------------------
 Center     Atomic      Atomic             Coordinates (Angstroms)
 Number     Number       Type             X           Y           Z
 ---------------------------------------------------------------------
      1         16           0        0.000000    0.000000    0.083909
      2          1           0        0.000000    0.932575   -0.671275
      3          1           0        0.000000   -0.932575   -0.671275
 ---------------------------------------------------------------------

 SCF Done:  E(RHF) =  -398.651334601     A.U. after    9 cycles

 The electronic state is 1-A1.
 Alpha  occ. eigenvalues --  -91.93244  -8.95332  -6.63705  -6.63508  -6.63221
 Alpha  occ. eigenvalues --   -1.02324  -0.65494  -0.49029  -0.38447
 Alpha virt. eigenvalues --    0.20939   0.24646   0.42730   0.46370   0.52162
 Alpha virt. eigenvalues --    0.53488   0.86901   0.90296   0.90694   0.96101
 Alpha virt. eigenvalues --    1.01075   1.39633   1.60653   1.63460   1.78416

 Mulliken charges:
               1
     1  S   -0.053298
     2  H    0.026649
     3  H    0.026649
 Sum of Mulliken charges =   0.00000

 Dipole moment (field-independent basis, Debye):
    X=              0.0000    Y=              0.0000    Z=             -1.4454  Tot=              1.4454
 Quadrupole moment (field-independent basis, Debye-Ang):
   XX=            -16.3073   YY=            -11.8326   ZZ=            -13.9701
   XY=              0.0000   XZ=              0.0000   YZ=              0.0000

 Normal termination of Gaussian 09 at Tue Sep 30 07:32:45 2014.
