 Gaussian 09, Revision D.01,
 Gaussian 09:  ES64L-G09RevD.01 24-Apr-2013

 -----------------
 #RHF 6-31G(d',p')
 -----------------

 ------------------
 H2S.r1.00theta87.0
 ------------------
 Symbolic Z-matrix:
 Charge =  0 Multiplicity = 1

                         Standard orientation:
 ---------------------------------------------------------------------
 Center     Atomic      Atomic             Coordinates (Angstroms)
 Number     Number       Type             X           Y           Z
 ---------------------------------------------------------------------
      1         16           0        0.000000    0.000000    0.080597
      2          1           0        0.000000    0.688355   -0.644777
      3          1           0        0.000000   -0.688355   -0.644777
 ---------------------------------------------------------------------

 SCF Done:  E(RHF) =  -398.448609623     A.U. after    9 cycles

 The electronic state is 1-A1.
 Alpha  occ. eigenvalues --  -91.89539  -8.94091  -6.62435  -6.62385  -6.61525
 Alpha  occ. eigenvalues --   -1.11165  -0.67982  -0.52740  -0.38908
 Alpha virt. eigenvalues --    0.22005   0.31892   0.37255   0.46753   0.52321
 Alpha virt. eigenvalues --    0.53026   0.82498   0.86893   0.92809   0.93308
 Alpha virt. eigenvalues --    1.08199   1.57492   1.69864   1.88420   2.01364

 Mulliken charges:
               1
     1  S    0.039045
     2  H   -0.019522
     3  H   -0.019522
 Sum of Mulliken charges =   0.00000

 Dipole moment (field-independent basis, Debye):
    X=              0.0000    Y=              0.0000    Z=             -1.3070  Tot=              1.3070
 Quadrupole moment (field-independent basis, Debye-Ang):
   XX=            -15.7708   YY=            -12.1569   ZZ=            -13.2152
   XY=              0.0000   XZ=              0.0000   YZ=              0.0000

 Normal termination of Gaussian 09 at Tue Sep 30 07:28:26 2014.
