 Gaussian 09, Revision D.01,
 Gaussian 09:  ES64L-G09RevD.01 24-Apr-2013

 -----------------
 #RHF 6-31G(d',p')
 -----------------

 ------------------
 H2S.r1.65theta86.0
 ------------------
 Symbolic Z-matrix:
 Charge =  0 Multiplicity = 1

                         Standard orientation:
 ---------------------------------------------------------------------
 Center     Atomic      Atomic             Coordinates (Angstroms)
 Number     Number       Type             X           Y           Z
 ---------------------------------------------------------------------
      1         16           0        0.000000    0.000000    0.134082
      2          1           0        0.000000    1.125297   -1.072652
      3          1           0        0.000000   -1.125297   -1.072652
 ---------------------------------------------------------------------

 SCF Done:  E(RHF) =  -398.606970822     A.U. after   10 cycles

 The electronic state is 1-A1.
 Alpha  occ. eigenvalues --  -91.99485  -8.99606  -6.67794  -6.67716  -6.67470
 Alpha  occ. eigenvalues --   -0.92393  -0.50199  -0.48066  -0.38615
 Alpha virt. eigenvalues --    0.09108   0.11544   0.49228   0.51322   0.53132
 Alpha virt. eigenvalues --    0.56906   0.90674   0.93406   0.94968   0.98901
 Alpha virt. eigenvalues --    0.98940   1.12164   1.17623   1.57024   1.58508

 Mulliken charges:
               1
     1  S   -0.105398
     2  H    0.052699
     3  H    0.052699
 Sum of Mulliken charges =   0.00000

 Dipole moment (field-independent basis, Debye):
    X=              0.0000    Y=              0.0000    Z=             -1.2004  Tot=              1.2004
 Quadrupole moment (field-independent basis, Debye-Ang):
   XX=            -17.3848   YY=            -12.9136   ZZ=            -13.3986
   XY=              0.0000   XZ=              0.0000   YZ=              0.0000

 Normal termination of Gaussian 09 at Tue Sep 30 07:41:56 2014.
