 Gaussian 09, Revision D.01,
 Gaussian 09:  ES64L-G09RevD.01 24-Apr-2013

 -----------------
 #RHF 6-31G(d',p')
 -----------------

 -------------------
 H2S.r1.15theta103.0
 -------------------
 Symbolic Z-matrix:
 Charge =  0 Multiplicity = 1

                         Standard orientation:
 ---------------------------------------------------------------------
 Center     Atomic      Atomic             Coordinates (Angstroms)
 Number     Number       Type             X           Y           Z
 ---------------------------------------------------------------------
      1         16           0        0.000000    0.000000    0.079544
      2          1           0        0.000000    0.899999   -0.636348
      3          1           0        0.000000   -0.899999   -0.636348
 ---------------------------------------------------------------------

 SCF Done:  E(RHF) =  -398.625302686     A.U. after    9 cycles

 The electronic state is 1-A1.
 Alpha  occ. eigenvalues --  -91.92324  -8.94902  -6.63312  -6.63068  -6.62734
 Alpha  occ. eigenvalues --   -1.04072  -0.67437  -0.49068  -0.38525
 Alpha virt. eigenvalues --    0.21858   0.26193   0.41012   0.45989   0.52290
 Alpha virt. eigenvalues --    0.53409   0.86692   0.90177   0.90182   0.96106
 Alpha virt. eigenvalues --    1.01863   1.44225   1.63930   1.67689   1.81684

 Mulliken charges:
               1
     1  S   -0.044226
     2  H    0.022113
     3  H    0.022113
 Sum of Mulliken charges =   0.00000

 Dipole moment (field-independent basis, Debye):
    X=              0.0000    Y=              0.0000    Z=             -1.4689  Tot=              1.4689
 Quadrupole moment (field-independent basis, Debye-Ang):
   XX=            -16.1683   YY=            -11.7733   ZZ=            -13.9448
   XY=              0.0000   XZ=              0.0000   YZ=              0.0000

 Normal termination of Gaussian 09 at Tue Sep 30 07:31:43 2014.
