 Gaussian 09, Revision D.01,
 Gaussian 09:  ES64L-G09RevD.01 24-Apr-2013

 -----------------
 #RHF 6-31G(d',p')
 -----------------

 -------------------
 H2S.r1.20theta134.0
 -------------------
 Symbolic Z-matrix:
 Charge =  0 Multiplicity = 1

                         Standard orientation:
 ---------------------------------------------------------------------
 Center     Atomic      Atomic             Coordinates (Angstroms)
 Number     Number       Type             X           Y           Z
 ---------------------------------------------------------------------
      1         16           0        0.000000    0.000000    0.052097
      2          1           0        0.000000    1.104606   -0.416780
      3          1           0        0.000000   -1.104606   -0.416780
 ---------------------------------------------------------------------

 SCF Done:  E(RHF) =  -398.609129509     A.U. after   10 cycles

 The electronic state is 1-A1.
 Alpha  occ. eigenvalues --  -91.92977  -8.95205  -6.63717  -6.63347  -6.63187
 Alpha  occ. eigenvalues --   -1.01885  -0.70327  -0.43240  -0.38372
 Alpha virt. eigenvalues --    0.16020   0.27226   0.40418   0.44547   0.53408
 Alpha virt. eigenvalues --    0.53480   0.86511   0.86513   0.97842   1.00108
 Alpha virt. eigenvalues --    1.00882   1.34940   1.43963   1.70346   1.79793

 Mulliken charges:
               1
     1  S   -0.135841
     2  H    0.067920
     3  H    0.067920
 Sum of Mulliken charges =   0.00000

 Dipole moment (field-independent basis, Debye):
    X=              0.0000    Y=              0.0000    Z=             -1.6421  Tot=              1.6421
 Quadrupole moment (field-independent basis, Debye-Ang):
   XX=            -16.3563   YY=            -10.6766   ZZ=            -15.1041
   XY=              0.0000   XZ=              0.0000   YZ=              0.0000

 Normal termination of Gaussian 09 at Tue Sep 30 07:33:07 2014.
