 Gaussian 09, Revision D.01,
 Gaussian 09:  ES64L-G09RevD.01 24-Apr-2013

 -----------------
 #RHF 6-31G(d',p')
 -----------------

 -------------------
 H2S.r0.65theta117.0
 -------------------
 Symbolic Z-matrix:
 Charge =  0 Multiplicity = 1

                         Standard orientation:
 ---------------------------------------------------------------------
 Center     Atomic      Atomic             Coordinates (Angstroms)
 Number     Number       Type             X           Y           Z
 ---------------------------------------------------------------------
      1         16           0        0.000000    0.000000    0.037736
      2          1           0        0.000000    0.554216   -0.301888
      3          1           0        0.000000   -0.554216   -0.301888
 ---------------------------------------------------------------------

 SCF Done:  E(RHF) =  -396.534065510     A.U. after   10 cycles

 The electronic state is 1-A1.
 Alpha  occ. eigenvalues --  -91.88526  -9.04557  -6.75878  -6.70562  -6.67783
 Alpha  occ. eigenvalues --   -1.22793  -0.84705  -0.48282  -0.41071
 Alpha virt. eigenvalues --    0.20659   0.23706   0.49814   0.50740   0.52507
 Alpha virt. eigenvalues --    0.55781   0.87617   0.89275   0.91360   0.97886
 Alpha virt. eigenvalues --    0.99210   1.97911   2.05396   2.19936   2.20656

 Mulliken charges:
               1
     1  S    0.652599
     2  H   -0.326300
     3  H   -0.326300
 Sum of Mulliken charges =   0.00000

 Dipole moment (field-independent basis, Debye):
    X=              0.0000    Y=              0.0000    Z=             -1.4247  Tot=              1.4247
 Quadrupole moment (field-independent basis, Debye-Ang):
   XX=            -14.6581   YY=            -11.6330   ZZ=            -13.5104
   XY=              0.0000   XZ=              0.0000   YZ=              0.0000

 Normal termination of Gaussian 09 at Tue Sep 30 07:21:37 2014.
