 Gaussian 09, Revision D.01,
 Gaussian 09:  ES64L-G09RevD.01 24-Apr-2013

 -----------------
 #RHF 6-31G(d',p')
 -----------------

 -------------------
 H2S.r1.60theta151.0
 -------------------
 Symbolic Z-matrix:
 Charge =  0 Multiplicity = 1

                         Standard orientation:
 ---------------------------------------------------------------------
 Center     Atomic      Atomic             Coordinates (Angstroms)
 Number     Number       Type             X           Y           Z
 ---------------------------------------------------------------------
      1         16           0        0.000000    0.000000    0.044512
      2          1           0        0.000000    1.549036   -0.356096
      3          1           0        0.000000   -1.549036   -0.356096
 ---------------------------------------------------------------------

 SCF Done:  E(RHF) =  -398.545980654     A.U. after   11 cycles

 The electronic state is 1-A1.
 Alpha  occ. eigenvalues --  -91.97092  -8.97515  -6.65791  -6.65672  -6.65490
 Alpha  occ. eigenvalues --   -0.92014  -0.57273  -0.38991  -0.37547
 Alpha virt. eigenvalues --    0.00239   0.20405   0.46343   0.53929   0.54075
 Alpha virt. eigenvalues --    0.55348   0.85285   0.94234   0.97751   1.04009
 Alpha virt. eigenvalues --    1.04204   1.05779   1.18735   1.55782   1.57874

 Mulliken charges:
               1
     1  S   -0.270729
     2  H    0.135364
     3  H    0.135364
 Sum of Mulliken charges =   0.00000

 Dipole moment (field-independent basis, Debye):
    X=              0.0000    Y=              0.0000    Z=             -1.2743  Tot=              1.2743
 Quadrupole moment (field-independent basis, Debye-Ang):
   XX=            -17.4999   YY=             -9.0123   ZZ=            -16.1919
   XY=              0.0000   XZ=              0.0000   YZ=              0.0000

 Normal termination of Gaussian 09 at Tue Sep 30 07:41:39 2014.
