 Gaussian 09, Revision D.01,
 Gaussian 09:  ES64L-G09RevD.01 24-Apr-2013

 -----------------
 #RHF 6-31G(d',p')
 -----------------

 -------------------
 H2S.r0.75theta122.0
 -------------------
 Symbolic Z-matrix:
 Charge =  0 Multiplicity = 1

                         Standard orientation:
 ---------------------------------------------------------------------
 Center     Atomic      Atomic             Coordinates (Angstroms)
 Number     Number       Type             X           Y           Z
 ---------------------------------------------------------------------
      1         16           0        0.000000    0.000000    0.040401
      2          1           0        0.000000    0.655965   -0.323206
      3          1           0        0.000000   -0.655965   -0.323206
 ---------------------------------------------------------------------

 SCF Done:  E(RHF) =  -397.455456972     A.U. after   10 cycles

 The electronic state is 1-A1.
 Alpha  occ. eigenvalues --  -91.86598  -8.98045  -6.68200  -6.64854  -6.63466
 Alpha  occ. eigenvalues --   -1.19903  -0.84833  -0.46948  -0.40318
 Alpha virt. eigenvalues --    0.22433   0.24659   0.45680   0.49125   0.51385
 Alpha virt. eigenvalues --    0.51553   0.87724   0.88350   0.93467   0.98703
 Alpha virt. eigenvalues --    0.99979   1.85528   1.88443   2.08668   2.10407

 Mulliken charges:
               1
     1  S    0.429872
     2  H   -0.214936
     3  H   -0.214936
 Sum of Mulliken charges =   0.00000

 Dipole moment (field-independent basis, Debye):
    X=              0.0000    Y=              0.0000    Z=             -1.5679  Tot=              1.5679
 Quadrupole moment (field-independent basis, Debye-Ang):
   XX=            -14.9630   YY=            -11.5159   ZZ=            -13.8067
   XY=              0.0000   XZ=              0.0000   YZ=              0.0000

 Normal termination of Gaussian 09 at Tue Sep 30 07:23:43 2014.
