 Gaussian 09, Revision D.01,
 Gaussian 09:  ES64L-G09RevD.01 24-Apr-2013

 -----------------
 #RHF 6-31G(d',p')
 -----------------

 -------------------
 H2S.r0.80theta112.0
 -------------------
 Symbolic Z-matrix:
 Charge =  0 Multiplicity = 1

                         Standard orientation:
 ---------------------------------------------------------------------
 Center     Atomic      Atomic             Coordinates (Angstroms)
 Number     Number       Type             X           Y           Z
 ---------------------------------------------------------------------
      1         16           0        0.000000    0.000000    0.049706
      2          1           0        0.000000    0.663230   -0.397648
      3          1           0        0.000000   -0.663230   -0.397648
 ---------------------------------------------------------------------

 SCF Done:  E(RHF) =  -397.777413758     A.U. after    9 cycles

 The electronic state is 1-A1.
 Alpha  occ. eigenvalues --  -91.86573  -8.96115  -6.65462  -6.63608  -6.62197
 Alpha  occ. eigenvalues --   -1.18450  -0.81431  -0.48571  -0.39883
 Alpha virt. eigenvalues --    0.24287   0.24703   0.43899   0.47435   0.51726
 Alpha virt. eigenvalues --    0.51991   0.87891   0.88936   0.91641   0.97580
 Alpha virt. eigenvalues --    1.02275   1.81604   1.85406   2.01637   2.08045

 Mulliken charges:
               1
     1  S    0.317070
     2  H   -0.158535
     3  H   -0.158535
 Sum of Mulliken charges =   0.00000

 Dipole moment (field-independent basis, Debye):
    X=              0.0000    Y=              0.0000    Z=             -1.5295  Tot=              1.5295
 Quadrupole moment (field-independent basis, Debye-Ang):
   XX=            -15.1499   YY=            -11.5665   ZZ=            -13.6634
   XY=              0.0000   XZ=              0.0000   YZ=              0.0000

 Normal termination of Gaussian 09 at Tue Sep 30 07:24:38 2014.
