 Gaussian 09, Revision D.01,
 Gaussian 09:  ES64L-G09RevD.01 24-Apr-2013

 -----------------
 #RHF 6-31G(d',p')
 -----------------

 ------------------
 H2S.r0.85theta85.0
 ------------------
 Symbolic Z-matrix:
 Charge =  0 Multiplicity = 1

                         Standard orientation:
 ---------------------------------------------------------------------
 Center     Atomic      Atomic             Coordinates (Angstroms)
 Number     Number       Type             X           Y           Z
 ---------------------------------------------------------------------
      1         16           0        0.000000    0.000000    0.069632
      2          1           0        0.000000    0.574252   -0.557054
      3          1           0        0.000000   -0.574252   -0.557054
 ---------------------------------------------------------------------

 SCF Done:  E(RHF) =  -398.013343679     A.U. after   10 cycles

 The electronic state is 1-A1.
 Alpha  occ. eigenvalues --  -91.87013  -8.94858  -6.63304  -6.63179  -6.61398
 Alpha  occ. eigenvalues --   -1.18729  -0.71398  -0.53660  -0.39504
 Alpha virt. eigenvalues --    0.22825   0.27297   0.42779   0.47599   0.52390
 Alpha virt. eigenvalues --    0.52601   0.83694   0.87215   0.93374   0.93477
 Alpha virt. eigenvalues --    1.08719   1.73798   1.81904   1.99284   2.09680

 Mulliken charges:
               1
     1  S    0.183516
     2  H   -0.091758
     3  H   -0.091758
 Sum of Mulliken charges =   0.00000

 Dipole moment (field-independent basis, Debye):
    X=              0.0000    Y=              0.0000    Z=             -1.2532  Tot=              1.2532
 Quadrupole moment (field-independent basis, Debye-Ang):
   XX=            -15.3725   YY=            -12.0603   ZZ=            -12.9908
   XY=              0.0000   XZ=              0.0000   YZ=              0.0000

 Normal termination of Gaussian 09 at Tue Sep 30 07:25:21 2014.
