 Gaussian 09, Revision D.01,
 Gaussian 09:  ES64L-G09RevD.01 24-Apr-2013

 -----------------
 #RHF 6-31G(d',p')
 -----------------

 -------------------
 H2S.r1.00theta104.0
 -------------------
 Symbolic Z-matrix:
 Charge =  0 Multiplicity = 1

                         Standard orientation:
 ---------------------------------------------------------------------
 Center     Atomic      Atomic             Coordinates (Angstroms)
 Number     Number       Type             X           Y           Z
 ---------------------------------------------------------------------
      1         16           0        0.000000    0.000000    0.068407
      2          1           0        0.000000    0.788011   -0.547255
      3          1           0        0.000000   -0.788011   -0.547255
 ---------------------------------------------------------------------

 SCF Done:  E(RHF) =  -398.451860002     A.U. after    9 cycles

 The electronic state is 1-A1.
 Alpha  occ. eigenvalues --  -91.89504  -8.94125  -6.62689  -6.62215  -6.61593
 Alpha  occ. eigenvalues --   -1.10095  -0.72995  -0.49447  -0.38916
 Alpha virt. eigenvalues --    0.23505   0.29804   0.37467   0.45552   0.52358
 Alpha virt. eigenvalues --    0.52994   0.86070   0.89614   0.89627   0.96191
 Alpha virt. eigenvalues --    1.04018   1.58681   1.72519   1.83416   1.91529

 Mulliken charges:
               1
     1  S    0.028872
     2  H   -0.014436
     3  H   -0.014436
 Sum of Mulliken charges =   0.00000

 Dipole moment (field-independent basis, Debye):
    X=              0.0000    Y=              0.0000    Z=             -1.4968  Tot=              1.4968
 Quadrupole moment (field-independent basis, Debye-Ang):
   XX=            -15.7447   YY=            -11.6870   ZZ=            -13.7647
   XY=              0.0000   XZ=              0.0000   YZ=              0.0000

 Normal termination of Gaussian 09 at Tue Sep 30 07:28:38 2014.
