 Gaussian 09, Revision D.01,
 Gaussian 09:  ES64L-G09RevD.01 24-Apr-2013

 -----------------
 #RHF 6-31G(d',p')
 -----------------

 ------------------
 H2S.r1.75theta82.0
 ------------------
 Symbolic Z-matrix:
 Charge =  0 Multiplicity = 1

                         Standard orientation:
 ---------------------------------------------------------------------
 Center     Atomic      Atomic             Coordinates (Angstroms)
 Number     Number       Type             X           Y           Z
 ---------------------------------------------------------------------
      1         16           0        0.000000    0.000000    0.146749
      2          1           0        0.000000    1.148103   -1.173993
      3          1           0        0.000000   -1.148103   -1.173993
 ---------------------------------------------------------------------

 SCF Done:  E(RHF) =  -398.571451012     A.U. after   10 cycles

 The electronic state is 1-A1.
 Alpha  occ. eigenvalues --  -92.00361  -9.00350  -6.68507  -6.68447  -6.68174
 Alpha  occ. eigenvalues --   -0.91341  -0.47633  -0.47427  -0.38758
 Alpha virt. eigenvalues --    0.06515   0.08923   0.48493   0.52448   0.52943
 Alpha virt. eigenvalues --    0.59027   0.91715   0.94172   0.96529   0.99872
 Alpha virt. eigenvalues --    1.00329   1.08608   1.11930   1.54828   1.58232

 Mulliken charges:
               1
     1  S   -0.121208
     2  H    0.060604
     3  H    0.060604
 Sum of Mulliken charges =   0.00000

 Dipole moment (field-independent basis, Debye):
    X=              0.0000    Y=              0.0000    Z=             -1.1885  Tot=              1.1885
 Quadrupole moment (field-independent basis, Debye-Ang):
   XX=            -17.5738   YY=            -13.2219   ZZ=            -13.1020
   XY=              0.0000   XZ=              0.0000   YZ=              0.0000

 Normal termination of Gaussian 09 at Tue Sep 30 07:43:59 2014.
