 Gaussian 09, Revision D.01,
 Gaussian 09:  ES64L-G09RevD.01 24-Apr-2013

 -----------------
 #RHF 6-31G(d',p')
 -----------------

 ------------------
 H2S.r0.95theta79.0
 ------------------
 Symbolic Z-matrix:
 Charge =  0 Multiplicity = 1

                         Standard orientation:
 ---------------------------------------------------------------------
 Center     Atomic      Atomic             Coordinates (Angstroms)
 Number     Number       Type             X           Y           Z
 ---------------------------------------------------------------------
      1         16           0        0.000000    0.000000    0.081449
      2          1           0        0.000000    0.604274   -0.651594
      3          1           0        0.000000   -0.604274   -0.651594
 ---------------------------------------------------------------------

 SCF Done:  E(RHF) =  -398.332330321     A.U. after    9 cycles

 The electronic state is 1-A1.
 Alpha  occ. eigenvalues --  -91.88676  -8.94122  -6.62584  -6.62334  -6.61324
 Alpha  occ. eigenvalues --   -1.14580  -0.66464  -0.54537  -0.39115
 Alpha virt. eigenvalues --    0.22084   0.30303   0.38073   0.47424   0.52104
 Alpha virt. eigenvalues --    0.52822   0.83973   0.86262   0.91924   0.94382
 Alpha virt. eigenvalues --    1.08483   1.63565   1.72619   1.92483   1.96133

 Mulliken charges:
               1
     1  S    0.069397
     2  H   -0.034699
     3  H   -0.034699
 Sum of Mulliken charges =   0.00000

 Dipole moment (field-independent basis, Debye):
    X=              0.0000    Y=              0.0000    Z=             -1.2277  Tot=              1.2277
 Quadrupole moment (field-independent basis, Debye-Ang):
   XX=            -15.6548   YY=            -12.3514   ZZ=            -12.8967
   XY=              0.0000   XZ=              0.0000   YZ=              0.0000

 Normal termination of Gaussian 09 at Tue Sep 30 07:27:20 2014.
