 Gaussian 09, Revision D.01,
 Gaussian 09:  ES64L-G09RevD.01 24-Apr-2013

 -----------------
 #RHF 6-31G(d',p')
 -----------------

 -------------------
 H2S.r0.85theta132.0
 -------------------
 Symbolic Z-matrix:
 Charge =  0 Multiplicity = 1

                         Standard orientation:
 ---------------------------------------------------------------------
 Center     Atomic      Atomic             Coordinates (Angstroms)
 Number     Number       Type             X           Y           Z
 ---------------------------------------------------------------------
      1         16           0        0.000000    0.000000    0.038414
      2          1           0        0.000000    0.776514   -0.307312
      3          1           0        0.000000   -0.776514   -0.307312
 ---------------------------------------------------------------------

 SCF Done:  E(RHF) =  -397.990822000     A.U. after    9 cycles

 The electronic state is 1-A1.
 Alpha  occ. eigenvalues --  -91.87421  -8.95562  -6.65134  -6.62798  -6.62215
 Alpha  occ. eigenvalues --   -1.15819  -0.83839  -0.44849  -0.39850
 Alpha virt. eigenvalues --    0.22499   0.26313   0.39704   0.47051   0.52040
 Alpha virt. eigenvalues --    0.52056   0.85683   0.87088   0.95995   0.99891
 Alpha virt. eigenvalues --    0.99921   1.66947   1.74929   1.95068   2.06089

 Mulliken charges:
               1
     1  S    0.214728
     2  H   -0.107364
     3  H   -0.107364
 Sum of Mulliken charges =   0.00000

 Dipole moment (field-independent basis, Debye):
    X=              0.0000    Y=              0.0000    Z=             -1.6436  Tot=              1.6436
 Quadrupole moment (field-independent basis, Debye-Ang):
   XX=            -15.2442   YY=            -11.3254   ZZ=            -14.2687
   XY=              0.0000   XZ=              0.0000   YZ=              0.0000

 Normal termination of Gaussian 09 at Tue Sep 30 07:25:53 2014.
