 Gaussian 09, Revision D.01,
 Gaussian 09:  ES64L-G09RevD.01 24-Apr-2013

 -----------------
 #RHF 6-31G(d',p')
 -----------------

 ------------------
 H2S.r1.40theta82.0
 ------------------
 Symbolic Z-matrix:
 Charge =  0 Multiplicity = 1

                         Standard orientation:
 ---------------------------------------------------------------------
 Center     Atomic      Atomic             Coordinates (Angstroms)
 Number     Number       Type             X           Y           Z
 ---------------------------------------------------------------------
      1         16           0        0.000000    0.000000    0.117399
      2          1           0        0.000000    0.918483   -0.939194
      3          1           0        0.000000   -0.918483   -0.939194
 ---------------------------------------------------------------------

 SCF Done:  E(RHF) =  -398.667273966     A.U. after   10 cycles

 The electronic state is 1-A1.
 Alpha  occ. eigenvalues --  -91.96655  -8.97454  -6.65696  -6.65620  -6.65376
 Alpha  occ. eigenvalues --   -0.97047  -0.55153  -0.51223  -0.38475
 Alpha virt. eigenvalues --    0.14525   0.19545   0.49315   0.50156   0.50416
 Alpha virt. eigenvalues --    0.53463   0.87153   0.88944   0.94747   0.95990
 Alpha virt. eigenvalues --    0.98501   1.25664   1.33563   1.65290   1.71916

 Mulliken charges:
               1
     1  S   -0.056273
     2  H    0.028136
     3  H    0.028136
 Sum of Mulliken charges =   0.00000

 Dipole moment (field-independent basis, Debye):
    X=              0.0000    Y=              0.0000    Z=             -1.2482  Tot=              1.2482
 Quadrupole moment (field-independent basis, Debye-Ang):
   XX=            -16.8278   YY=            -12.9234   ZZ=            -13.2941
   XY=              0.0000   XZ=              0.0000   YZ=              0.0000

 Normal termination of Gaussian 09 at Tue Sep 30 07:36:41 2014.
