 Gaussian 09, Revision D.01,
 Gaussian 09:  ES64L-G09RevD.01 24-Apr-2013

 -----------------
 #RHF 6-31G(d',p')
 -----------------

 -------------------
 H2S.r0.95theta100.0
 -------------------
 Symbolic Z-matrix:
 Charge =  0 Multiplicity = 1

                         Standard orientation:
 ---------------------------------------------------------------------
 Center     Atomic      Atomic             Coordinates (Angstroms)
 Number     Number       Type             X           Y           Z
 ---------------------------------------------------------------------
      1         16           0        0.000000    0.000000    0.067850
      2          1           0        0.000000    0.727742   -0.542798
      3          1           0        0.000000   -0.727742   -0.542798
 ---------------------------------------------------------------------

 SCF Done:  E(RHF) =  -398.347520496     A.U. after    9 cycles

 The electronic state is 1-A1.
 Alpha  occ. eigenvalues --  -91.88587  -8.94117  -6.62692  -6.62221  -6.61360
 Alpha  occ. eigenvalues --   -1.12512  -0.73631  -0.50383  -0.39083
 Alpha virt. eigenvalues --    0.23357   0.30210   0.38118   0.45929   0.52327
 Alpha virt. eigenvalues --    0.52820   0.84738   0.88797   0.90406   0.95618
 Alpha virt. eigenvalues --    1.05912   1.63257   1.76121   1.92096   1.93665

 Mulliken charges:
               1
     1  S    0.079086
     2  H   -0.039543
     3  H   -0.039543
 Sum of Mulliken charges =   0.00000

 Dipole moment (field-independent basis, Debye):
    X=              0.0000    Y=              0.0000    Z=             -1.4476  Tot=              1.4476
 Quadrupole moment (field-independent basis, Debye-Ang):
   XX=            -15.6109   YY=            -11.7646   ZZ=            -13.5671
   XY=              0.0000   XZ=              0.0000   YZ=              0.0000

 Normal termination of Gaussian 09 at Tue Sep 30 07:27:34 2014.
