 Gaussian 09, Revision D.01,
 Gaussian 09:  ES64L-G09RevD.01 24-Apr-2013

 -----------------
 #RHF 6-31G(d',p')
 -----------------

 -------------------
 H2S.r1.05theta133.0
 -------------------
 Symbolic Z-matrix:
 Charge =  0 Multiplicity = 1

                         Standard orientation:
 ---------------------------------------------------------------------
 Center     Atomic      Atomic             Coordinates (Angstroms)
 Number     Number       Type             X           Y           Z
 ---------------------------------------------------------------------
      1         16           0        0.000000    0.000000    0.046521
      2          1           0        0.000000    0.962913   -0.372166
      3          1           0        0.000000   -0.962913   -0.372166
 ---------------------------------------------------------------------

 SCF Done:  E(RHF) =  -398.491989567     A.U. after   10 cycles

 The electronic state is 1-A1.
 Alpha  occ. eigenvalues --  -91.90552  -8.94529  -6.63287  -6.62486  -6.62251
 Alpha  occ. eigenvalues --   -1.07440  -0.76300  -0.43940  -0.38894
 Alpha virt. eigenvalues --    0.20622   0.27909   0.37906   0.44187   0.52987
 Alpha virt. eigenvalues --    0.53000   0.85442   0.86653   0.97177   0.99861
 Alpha virt. eigenvalues --    1.00376   1.46867   1.56241   1.79267   1.91753

 Mulliken charges:
               1
     1  S   -0.065016
     2  H    0.032508
     3  H    0.032508
 Sum of Mulliken charges =   0.00000

 Dipole moment (field-independent basis, Debye):
    X=              0.0000    Y=              0.0000    Z=             -1.6761  Tot=              1.6761
 Quadrupole moment (field-independent basis, Debye-Ang):
   XX=            -15.8814   YY=            -10.9804   ZZ=            -14.7628
   XY=              0.0000   XZ=              0.0000   YZ=              0.0000

 Normal termination of Gaussian 09 at Tue Sep 30 07:29:59 2014.
