 Gaussian 09, Revision D.01,
 Gaussian 09:  ES64L-G09RevD.01 24-Apr-2013

 -----------------
 #RHF 6-31G(d',p')
 -----------------

 -------------------
 H2S.r1.70theta160.0
 -------------------
 Symbolic Z-matrix:
 Charge =  0 Multiplicity = 1

                         Standard orientation:
 ---------------------------------------------------------------------
 Center     Atomic      Atomic             Coordinates (Angstroms)
 Number     Number       Type             X           Y           Z
 ---------------------------------------------------------------------
      1         16           0        0.000000    0.000000    0.032800
      2          1           0        0.000000    1.674173   -0.262402
      3          1           0        0.000000   -1.674173   -0.262402
 ---------------------------------------------------------------------

 SCF Done:  E(RHF) =  -398.495804895     A.U. after   11 cycles

 The electronic state is 1-A1.
 Alpha  occ. eigenvalues --  -91.97363  -8.97662  -6.65921  -6.65791  -6.65601
 Alpha  occ. eigenvalues --   -0.90395  -0.54534  -0.37290  -0.37267
 Alpha virt. eigenvalues --   -0.03632   0.18049   0.47346   0.54044   0.54323
 Alpha virt. eigenvalues --    0.60941   0.85757   0.96807   0.97441   1.01645
 Alpha virt. eigenvalues --    1.04889   1.04957   1.13022   1.53949   1.54418

 Mulliken charges:
               1
     1  S   -0.332883
     2  H    0.166442
     3  H    0.166442
 Sum of Mulliken charges =   0.00000

 Dipole moment (field-independent basis, Debye):
    X=              0.0000    Y=              0.0000    Z=             -1.0589  Tot=              1.0589
 Quadrupole moment (field-independent basis, Debye-Ang):
   XX=            -17.7672   YY=             -8.1645   ZZ=            -16.5465
   XY=              0.0000   XZ=              0.0000   YZ=              0.0000

 Normal termination of Gaussian 09 at Tue Sep 30 07:43:50 2014.
