 Gaussian 09, Revision D.01,
 Gaussian 09:  ES64L-G09RevD.01 24-Apr-2013

 -----------------
 #RHF 6-31G(d',p')
 -----------------

 -------------------
 H2S.r1.75theta111.0
 -------------------
 Symbolic Z-matrix:
 Charge =  0 Multiplicity = 1

                         Standard orientation:
 ---------------------------------------------------------------------
 Center     Atomic      Atomic             Coordinates (Angstroms)
 Number     Number       Type             X           Y           Z
 ---------------------------------------------------------------------
      1         16           0        0.000000    0.000000    0.110135
      2          1           0        0.000000    1.442221   -0.881076
      3          1           0        0.000000   -1.442221   -0.881076
 ---------------------------------------------------------------------

 SCF Done:  E(RHF) =  -398.565294371     A.U. after   10 cycles

 The electronic state is 1-A1.
 Alpha  occ. eigenvalues --  -91.99981  -8.99997  -6.68172  -6.68090  -6.67838
 Alpha  occ. eigenvalues --   -0.91043  -0.51060  -0.43907  -0.38525
 Alpha virt. eigenvalues --    0.05517   0.09738   0.49652   0.52492   0.53100
 Alpha virt. eigenvalues --    0.54812   0.93187   0.93348   0.98986   0.99288
 Alpha virt. eigenvalues --    1.01569   1.07986   1.11958   1.53970   1.55961

 Mulliken charges:
               1
     1  S   -0.134833
     2  H    0.067416
     3  H    0.067416
 Sum of Mulliken charges =   0.00000

 Dipole moment (field-independent basis, Debye):
    X=              0.0000    Y=              0.0000    Z=             -1.1384  Tot=              1.1384
 Quadrupole moment (field-independent basis, Debye-Ang):
   XX=            -17.5866   YY=            -11.3860   ZZ=            -14.6040
   XY=              0.0000   XZ=              0.0000   YZ=              0.0000

 Normal termination of Gaussian 09 at Tue Sep 30 07:44:21 2014.
