 Gaussian 09, Revision D.01,
 Gaussian 09:  ES64L-G09RevD.01 24-Apr-2013

 -----------------
 #RHF 6-31G(d',p')
 -----------------

 -------------------
 H2S.r1.60theta104.0
 -------------------
 Symbolic Z-matrix:
 Charge =  0 Multiplicity = 1

                         Standard orientation:
 ---------------------------------------------------------------------
 Center     Atomic      Atomic             Coordinates (Angstroms)
 Number     Number       Type             X           Y           Z
 ---------------------------------------------------------------------
      1         16           0        0.000000    0.000000    0.109451
      2          1           0        0.000000    1.260817   -0.875607
      3          1           0        0.000000   -1.260817   -0.875607
 ---------------------------------------------------------------------

 SCF Done:  E(RHF) =  -398.620438098     A.U. after    9 cycles

 The electronic state is 1-A1.
 Alpha  occ. eigenvalues --  -91.98758  -8.98982  -6.67198  -6.67103  -6.66882
 Alpha  occ. eigenvalues --   -0.92835  -0.53887  -0.46089  -0.38404
 Alpha virt. eigenvalues --    0.10869   0.12417   0.50128   0.50303   0.53322
 Alpha virt. eigenvalues --    0.53464   0.91720   0.92560   0.96265   0.96793
 Alpha virt. eigenvalues --    0.99855   1.13741   1.21844   1.54452   1.59822

 Mulliken charges:
               1
     1  S   -0.110217
     2  H    0.055109
     3  H    0.055109
 Sum of Mulliken charges =   0.00000

 Dipole moment (field-independent basis, Debye):
    X=              0.0000    Y=              0.0000    Z=             -1.2420  Tot=              1.2420
 Quadrupole moment (field-independent basis, Debye-Ang):
   XX=            -17.2927   YY=            -11.8255   ZZ=            -14.2831
   XY=              0.0000   XZ=              0.0000   YZ=              0.0000

 Normal termination of Gaussian 09 at Tue Sep 30 07:41:06 2014.
