 Gaussian 09, Revision D.01,
 Gaussian 09:  ES64L-G09RevD.01 24-Apr-2013

 -----------------
 #RHF 6-31G(d',p')
 -----------------

 -------------------
 H2S.r1.30theta104.0
 -------------------
 Symbolic Z-matrix:
 Charge =  0 Multiplicity = 1

                         Standard orientation:
 ---------------------------------------------------------------------
 Center     Atomic      Atomic             Coordinates (Angstroms)
 Number     Number       Type             X           Y           Z
 ---------------------------------------------------------------------
      1         16           0        0.000000    0.000000    0.088929
      2          1           0        0.000000    1.024414   -0.711431
      3          1           0        0.000000   -1.024414   -0.711431
 ---------------------------------------------------------------------

 SCF Done:  E(RHF) =  -398.672168713     A.U. after   10 cycles

 The electronic state is 1-A1.
 Alpha  occ. eigenvalues --  -91.94924  -8.96263  -6.64590  -6.64435  -6.64214
 Alpha  occ. eigenvalues --   -0.99146  -0.62545  -0.48167  -0.38338
 Alpha virt. eigenvalues --    0.19353   0.20713   0.45567   0.47041   0.51990
 Alpha virt. eigenvalues --    0.53573   0.88775   0.91130   0.91480   0.96951
 Alpha virt. eigenvalues --    0.98423   1.31473   1.49779   1.58212   1.73249

 Mulliken charges:
               1
     1  S   -0.072763
     2  H    0.036382
     3  H    0.036382
 Sum of Mulliken charges =   0.00000

 Dipole moment (field-independent basis, Debye):
    X=              0.0000    Y=              0.0000    Z=             -1.4236  Tot=              1.4236
 Quadrupole moment (field-independent basis, Debye-Ang):
   XX=            -16.5808   YY=            -11.7898   ZZ=            -14.1469
   XY=              0.0000   XZ=              0.0000   YZ=              0.0000

 Normal termination of Gaussian 09 at Tue Sep 30 07:34:51 2014.
