 Gaussian 09, Revision D.01,
 Gaussian 09:  ES64L-G09RevD.01 24-Apr-2013

 -----------------
 #RHF 6-31G(d',p')
 -----------------

 -------------------
 H2S.r0.80theta135.0
 -------------------
 Symbolic Z-matrix:
 Charge =  0 Multiplicity = 1

                         Standard orientation:
 ---------------------------------------------------------------------
 Center     Atomic      Atomic             Coordinates (Angstroms)
 Number     Number       Type             X           Y           Z
 ---------------------------------------------------------------------
      1         16           0        0.000000    0.000000    0.034016
      2          1           0        0.000000    0.739104   -0.272130
      3          1           0        0.000000   -0.739104   -0.272130
 ---------------------------------------------------------------------

 SCF Done:  E(RHF) =  -397.746585955     A.U. after   10 cycles

 The electronic state is 1-A1.
 Alpha  occ. eigenvalues --  -91.87000  -8.96725  -6.66793  -6.63540  -6.62872
 Alpha  occ. eigenvalues --   -1.17768  -0.85787  -0.44571  -0.40182
 Alpha virt. eigenvalues --    0.21475   0.26013   0.41533   0.48809   0.51705
 Alpha virt. eigenvalues --    0.51767   0.85595   0.86239   0.96163   1.00027
 Alpha virt. eigenvalues --    1.00067   1.72158   1.80693   1.97393   2.12239

 Mulliken charges:
               1
     1  S    0.314905
     2  H   -0.157453
     3  H   -0.157453
 Sum of Mulliken charges =   0.00000

 Dipole moment (field-independent basis, Debye):
    X=              0.0000    Y=              0.0000    Z=             -1.6065  Tot=              1.6065
 Quadrupole moment (field-independent basis, Debye-Ang):
   XX=            -15.0746   YY=            -11.3803   ZZ=            -14.2200
   XY=              0.0000   XZ=              0.0000   YZ=              0.0000

 Normal termination of Gaussian 09 at Tue Sep 30 07:24:53 2014.
