 Gaussian 09, Revision D.01,
 Gaussian 09:  ES64L-G09RevD.01 24-Apr-2013

 -----------------
 #RHF 6-31G(d',p')
 -----------------

 -------------------
 H2S.r1.25theta102.0
 -------------------
 Symbolic Z-matrix:
 Charge =  0 Multiplicity = 1

                         Standard orientation:
 ---------------------------------------------------------------------
 Center     Atomic      Atomic             Coordinates (Angstroms)
 Number     Number       Type             X           Y           Z
 ---------------------------------------------------------------------
      1         16           0        0.000000    0.000000    0.087406
      2          1           0        0.000000    0.971432   -0.699245
      3          1           0        0.000000   -0.971432   -0.699245
 ---------------------------------------------------------------------

 SCF Done:  E(RHF) =  -398.666390162     A.U. after   10 cycles

 The electronic state is 1-A1.
 Alpha  occ. eigenvalues --  -91.94120  -8.95798  -6.64144  -6.63974  -6.63724
 Alpha  occ. eigenvalues --   -1.00685  -0.63812  -0.48784  -0.38389
 Alpha virt. eigenvalues --    0.20044   0.22870   0.44335   0.46741   0.52035
 Alpha virt. eigenvalues --    0.53540   0.87532   0.90566   0.91168   0.96337
 Alpha virt. eigenvalues --    0.99941   1.35353   1.55709   1.60548   1.75540

 Mulliken charges:
               1
     1  S   -0.061799
     2  H    0.030899
     3  H    0.030899
 Sum of Mulliken charges =   0.00000

 Dipole moment (field-independent basis, Debye):
    X=              0.0000    Y=              0.0000    Z=             -1.4283  Tot=              1.4283
 Quadrupole moment (field-independent basis, Debye-Ang):
   XX=            -16.4444   YY=            -11.8559   ZZ=            -14.0239
   XY=              0.0000   XZ=              0.0000   YZ=              0.0000

 Normal termination of Gaussian 09 at Tue Sep 30 07:33:47 2014.
