 Gaussian 09, Revision D.01,
 Gaussian 09:  ES64L-G09RevD.01 24-Apr-2013

 -----------------
 #RHF 6-31G(d',p')
 -----------------

 -------------------
 H2S.r1.00theta109.0
 -------------------
 Symbolic Z-matrix:
 Charge =  0 Multiplicity = 1

                         Standard orientation:
 ---------------------------------------------------------------------
 Center     Atomic      Atomic             Coordinates (Angstroms)
 Number     Number       Type             X           Y           Z
 ---------------------------------------------------------------------
      1         16           0        0.000000    0.000000    0.064523
      2          1           0        0.000000    0.814116   -0.516180
      3          1           0        0.000000   -0.814116   -0.516180
 ---------------------------------------------------------------------

 SCF Done:  E(RHF) =  -398.448854721     A.U. after    9 cycles

 The electronic state is 1-A1.
 Alpha  occ. eigenvalues --  -91.89519  -8.94164  -6.62789  -6.62202  -6.61644
 Alpha  occ. eigenvalues --   -1.09917  -0.74190  -0.48498  -0.38938
 Alpha virt. eigenvalues --    0.24083   0.28535   0.37488   0.45264   0.52388
 Alpha virt. eigenvalues --    0.52969   0.87580   0.88748   0.90744   0.96969
 Alpha virt. eigenvalues --    1.02273   1.59069   1.69765   1.82428   1.93344

 Mulliken charges:
               1
     1  S    0.023035
     2  H   -0.011517
     3  H   -0.011517
 Sum of Mulliken charges =   0.00000

 Dipole moment (field-independent basis, Debye):
    X=              0.0000    Y=              0.0000    Z=             -1.5495  Tot=              1.5495
 Quadrupole moment (field-independent basis, Debye-Ang):
   XX=            -15.7391   YY=            -11.5676   ZZ=            -13.9204
   XY=              0.0000   XZ=              0.0000   YZ=              0.0000

 Normal termination of Gaussian 09 at Tue Sep 30 07:28:41 2014.
