 Gaussian 09, Revision D.01,
 Gaussian 09:  ES64L-G09RevD.01 24-Apr-2013

 -----------------
 #RHF 6-31G(d',p')
 -----------------

 -------------------
 H2S.r0.65theta151.0
 -------------------
 Symbolic Z-matrix:
 Charge =  0 Multiplicity = 1

                         Standard orientation:
 ---------------------------------------------------------------------
 Center     Atomic      Atomic             Coordinates (Angstroms)
 Number     Number       Type             X           Y           Z
 ---------------------------------------------------------------------
      1         16           0        0.000000    0.000000    0.018083
      2          1           0        0.000000    0.629296   -0.144664
      3          1           0        0.000000   -0.629296   -0.144664
 ---------------------------------------------------------------------

 SCF Done:  E(RHF) =  -396.485638131     A.U. after   10 cycles

 The electronic state is 1-A1.
 Alpha  occ. eigenvalues --  -91.89414  -9.05687  -6.79324  -6.69726  -6.69077
 Alpha  occ. eigenvalues --   -1.22049  -0.89521  -0.43381  -0.41570
 Alpha virt. eigenvalues --    0.17891   0.24669   0.49369   0.50293   0.50417
 Alpha virt. eigenvalues --    0.60762   0.80663   0.85259   0.94814   0.99949
 Alpha virt. eigenvalues --    0.99982   1.93029   1.98320   2.01409   2.40870

 Mulliken charges:
               1
     1  S    0.663159
     2  H   -0.331579
     3  H   -0.331579
 Sum of Mulliken charges =   0.00000

 Dipole moment (field-independent basis, Debye):
    X=              0.0000    Y=              0.0000    Z=             -1.2336  Tot=              1.2336
 Quadrupole moment (field-independent basis, Debye-Ang):
   XX=            -14.5047   YY=            -11.6252   ZZ=            -14.1297
   XY=              0.0000   XZ=              0.0000   YZ=              0.0000

 Normal termination of Gaussian 09 at Tue Sep 30 07:22:00 2014.
