 Gaussian 09, Revision D.01,
 Gaussian 09:  ES64L-G09RevD.01 24-Apr-2013

 -----------------
 #RHF 6-31G(d',p')
 -----------------

 -------------------
 H2S.r1.45theta158.0
 -------------------
 Symbolic Z-matrix:
 Charge =  0 Multiplicity = 1

                         Standard orientation:
 ---------------------------------------------------------------------
 Center     Atomic      Atomic             Coordinates (Angstroms)
 Number     Number       Type             X           Y           Z
 ---------------------------------------------------------------------
      1         16           0        0.000000    0.000000    0.030741
      2          1           0        0.000000    1.423359   -0.245932
      3          1           0        0.000000   -1.423359   -0.245932
 ---------------------------------------------------------------------

 SCF Done:  E(RHF) =  -398.564275737     A.U. after   10 cycles

 The electronic state is 1-A1.
 Alpha  occ. eigenvalues --  -91.95046  -8.95939  -6.64355  -6.64186  -6.64082
 Alpha  occ. eigenvalues --   -0.94455  -0.62223  -0.38329  -0.37247
 Alpha virt. eigenvalues --    0.02249   0.27261   0.44322   0.52844   0.54248
 Alpha virt. eigenvalues --    0.54563   0.82883   0.89834   0.97404   1.04722
 Alpha virt. eigenvalues --    1.04799   1.07979   1.31269   1.55974   1.59030

 Mulliken charges:
               1
     1  S   -0.349783
     2  H    0.174891
     3  H    0.174891
 Sum of Mulliken charges =   0.00000

 Dipole moment (field-independent basis, Debye):
    X=              0.0000    Y=              0.0000    Z=             -1.3310  Tot=              1.3310
 Quadrupole moment (field-independent basis, Debye-Ang):
   XX=            -17.2337   YY=             -8.5578   ZZ=            -16.4699
   XY=              0.0000   XZ=              0.0000   YZ=              0.0000

 Normal termination of Gaussian 09 at Tue Sep 30 07:38:35 2014.
