 Gaussian 09, Revision D.01,
 Gaussian 09:  ES64L-G09RevD.01 24-Apr-2013

 -----------------
 #RHF 6-31G(d',p')
 -----------------

 ------------------
 H2S.r1.35theta92.0
 ------------------
 Symbolic Z-matrix:
 Charge =  0 Multiplicity = 1

                         Standard orientation:
 ---------------------------------------------------------------------
 Center     Atomic      Atomic             Coordinates (Angstroms)
 Number     Number       Type             X           Y           Z
 ---------------------------------------------------------------------
      1         16           0        0.000000    0.000000    0.104199
      2          1           0        0.000000    0.971109   -0.833590
      3          1           0        0.000000   -0.971109   -0.833590
 ---------------------------------------------------------------------

 SCF Done:  E(RHF) =  -398.675508011     A.U. after   10 cycles

 The electronic state is 1-A1.
 Alpha  occ. eigenvalues --  -91.95840  -8.96874  -6.65153  -6.65045  -6.64813
 Alpha  occ. eigenvalues --   -0.98026  -0.58684  -0.49920  -0.38400
 Alpha virt. eigenvalues --    0.16676   0.20761   0.48235   0.48593   0.51196
 Alpha virt. eigenvalues --    0.53529   0.86810   0.89560   0.93878   0.95613
 Alpha virt. eigenvalues --    0.99218   1.27847   1.42171   1.65042   1.68413

 Mulliken charges:
               1
     1  S   -0.059846
     2  H    0.029923
     3  H    0.029923
 Sum of Mulliken charges =   0.00000

 Dipole moment (field-independent basis, Debye):
    X=              0.0000    Y=              0.0000    Z=             -1.3143  Tot=              1.3143
 Quadrupole moment (field-independent basis, Debye-Ang):
   XX=            -16.7021   YY=            -12.3677   ZZ=            -13.7070
   XY=              0.0000   XZ=              0.0000   YZ=              0.0000

 Normal termination of Gaussian 09 at Tue Sep 30 07:35:45 2014.
