 Gaussian 09, Revision D.01,
 Gaussian 09:  ES64L-G09RevD.01 24-Apr-2013

 -----------------
 #RHF 6-31G(d',p')
 -----------------

 -------------------
 H2S.r1.30theta125.0
 -------------------
 Symbolic Z-matrix:
 Charge =  0 Multiplicity = 1

                         Standard orientation:
 ---------------------------------------------------------------------
 Center     Atomic      Atomic             Coordinates (Angstroms)
 Number     Number       Type             X           Y           Z
 ---------------------------------------------------------------------
      1         16           0        0.000000    0.000000    0.066697
      2          1           0        0.000000    1.153114   -0.533576
      3          1           0        0.000000   -1.153114   -0.533576
 ---------------------------------------------------------------------

 SCF Done:  E(RHF) =  -398.647675310     A.U. after   10 cycles

 The electronic state is 1-A1.
 Alpha  occ. eigenvalues --  -91.94623  -8.96038  -6.64421  -6.64212  -6.64037
 Alpha  occ. eigenvalues --   -0.98875  -0.65587  -0.44481  -0.38211
 Alpha virt. eigenvalues --    0.15387   0.23222   0.43001   0.46056   0.53080
 Alpha virt. eigenvalues --    0.53637   0.88846   0.88890   0.95617   0.98513
 Alpha virt. eigenvalues --    1.00000   1.34097   1.34556   1.67477   1.69491

 Mulliken charges:
               1
     1  S   -0.121790
     2  H    0.060895
     3  H    0.060895
 Sum of Mulliken charges =   0.00000

 Dipole moment (field-independent basis, Debye):
    X=              0.0000    Y=              0.0000    Z=             -1.5635  Tot=              1.5635
 Quadrupole moment (field-independent basis, Debye-Ang):
   XX=            -16.6226   YY=            -10.8978   ZZ=            -14.9328
   XY=              0.0000   XZ=              0.0000   YZ=              0.0000

 Normal termination of Gaussian 09 at Tue Sep 30 07:35:05 2014.
