 Gaussian 09, Revision D.01,
 Gaussian 09:  ES64L-G09RevD.01 24-Apr-2013

 -----------------
 #RHF 6-31G(d',p')
 -----------------

 -------------------
 H2S.r1.00theta144.0
 -------------------
 Symbolic Z-matrix:
 Charge =  0 Multiplicity = 1

                         Standard orientation:
 ---------------------------------------------------------------------
 Center     Atomic      Atomic             Coordinates (Angstroms)
 Number     Number       Type             X           Y           Z
 ---------------------------------------------------------------------
      1         16           0        0.000000    0.000000    0.034335
      2          1           0        0.000000    0.951057   -0.274682
      3          1           0        0.000000   -0.951057   -0.274682
 ---------------------------------------------------------------------

 SCF Done:  E(RHF) =  -398.392873776     A.U. after   10 cycles

 The electronic state is 1-A1.
 Alpha  occ. eigenvalues --  -91.89825  -8.94682  -6.63672  -6.62474  -6.62294
 Alpha  occ. eigenvalues --   -1.09391  -0.79457  -0.42331  -0.39194
 Alpha virt. eigenvalues --    0.18743   0.30081   0.37580   0.44950   0.52667
 Alpha virt. eigenvalues --    0.52903   0.83229   0.84147   0.98627   1.01253
 Alpha virt. eigenvalues --    1.01499   1.46750   1.61595   1.76769   2.04186

 Mulliken charges:
               1
     1  S   -0.055478
     2  H    0.027739
     3  H    0.027739
 Sum of Mulliken charges =   0.00000

 Dipole moment (field-independent basis, Debye):
    X=              0.0000    Y=              0.0000    Z=             -1.5933  Tot=              1.5933
 Quadrupole moment (field-independent basis, Debye-Ang):
   XX=            -15.7131   YY=            -10.8672   ZZ=            -14.9782
   XY=              0.0000   XZ=              0.0000   YZ=              0.0000

 Normal termination of Gaussian 09 at Tue Sep 30 07:29:05 2014.
