 Gaussian 09, Revision D.01,
 Gaussian 09:  ES64L-G09RevD.01 24-Apr-2013

 -----------------
 #RHF 6-31G(d',p')
 -----------------

 ------------------
 H2S.r0.75theta77.0
 ------------------
 Symbolic Z-matrix:
 Charge =  0 Multiplicity = 1

                         Standard orientation:
 ---------------------------------------------------------------------
 Center     Atomic      Atomic             Coordinates (Angstroms)
 Number     Number       Type             X           Y           Z
 ---------------------------------------------------------------------
      1         16           0        0.000000    0.000000    0.065217
      2          1           0        0.000000    0.466886   -0.521739
      3          1           0        0.000000   -0.466886   -0.521739
 ---------------------------------------------------------------------

 SCF Done:  E(RHF) =  -397.442296590     A.U. after    9 cycles

 The electronic state is 1-A1.
 Alpha  occ. eigenvalues --  -91.86432  -8.97630  -6.66613  -6.65517  -6.62919
 Alpha  occ. eigenvalues --   -1.25173  -0.69787  -0.55599  -0.40129
 Alpha virt. eigenvalues --    0.23034   0.23552   0.46956   0.49644   0.51753
 Alpha virt. eigenvalues --    0.54056   0.86440   0.87504   0.92444   0.95056
 Alpha virt. eigenvalues --    1.05991   1.88539   1.91699   2.08096   2.12628

 Mulliken charges:
               1
     1  S    0.313747
     2  H   -0.156874
     3  H   -0.156874
 Sum of Mulliken charges =   0.00000

 Dipole moment (field-independent basis, Debye):
    X=              0.0000    Y=              0.0000    Z=             -1.1352  Tot=              1.1352
 Quadrupole moment (field-independent basis, Debye-Ang):
   XX=            -15.1095   YY=            -12.1868   ZZ=            -12.6747
   XY=              0.0000   XZ=              0.0000   YZ=              0.0000

 Normal termination of Gaussian 09 at Tue Sep 30 07:23:13 2014.
