 Gaussian 09, Revision D.01,
 Gaussian 09:  ES64L-G09RevD.01 24-Apr-2013

 -----------------
 #RHF 6-31G(d',p')
 -----------------

 -------------------
 H2S.r0.95theta118.0
 -------------------
 Symbolic Z-matrix:
 Charge =  0 Multiplicity = 1

                         Standard orientation:
 ---------------------------------------------------------------------
 Center     Atomic      Atomic             Coordinates (Angstroms)
 Number     Number       Type             X           Y           Z
 ---------------------------------------------------------------------
      1         16           0        0.000000    0.000000    0.054365
      2          1           0        0.000000    0.814309   -0.434921
      3          1           0        0.000000   -0.814309   -0.434921
 ---------------------------------------------------------------------

 SCF Done:  E(RHF) =  -398.334742512     A.U. after    9 cycles

 The electronic state is 1-A1.
 Alpha  occ. eigenvalues --  -91.88703  -8.94330  -6.63186  -6.62180  -6.61617
 Alpha  occ. eigenvalues --   -1.11830  -0.77923  -0.46977  -0.39198
 Alpha virt. eigenvalues --    0.25292   0.26263   0.37735   0.45147   0.52362
 Alpha virt. eigenvalues --    0.52700   0.87337   0.89051   0.92910   0.98307
 Alpha virt. eigenvalues --    1.00179   1.64491   1.66175   1.89704   1.95889

 Mulliken charges:
               1
     1  S    0.066765
     2  H   -0.033383
     3  H   -0.033383
 Sum of Mulliken charges =   0.00000

 Dipole moment (field-independent basis, Debye):
    X=              0.0000    Y=              0.0000    Z=             -1.6262  Tot=              1.6262
 Quadrupole moment (field-independent basis, Debye-Ang):
   XX=            -15.5818   YY=            -11.4007   ZZ=            -14.1016
   XY=              0.0000   XZ=              0.0000   YZ=              0.0000

 Normal termination of Gaussian 09 at Tue Sep 30 07:27:46 2014.
