 Gaussian 09, Revision D.01,
 Gaussian 09:  ES64L-G09RevD.01 24-Apr-2013

 -----------------
 #RHF 6-31G(d',p')
 -----------------

 -------------------
 H2S.r1.50theta160.0
 -------------------
 Symbolic Z-matrix:
 Charge =  0 Multiplicity = 1

                         Standard orientation:
 ---------------------------------------------------------------------
 Center     Atomic      Atomic             Coordinates (Angstroms)
 Number     Number       Type             X           Y           Z
 ---------------------------------------------------------------------
      1         16           0        0.000000    0.000000    0.028941
      2          1           0        0.000000    1.477212   -0.231531
      3          1           0        0.000000   -1.477212   -0.231531
 ---------------------------------------------------------------------

 SCF Done:  E(RHF) =  -398.549129995     A.U. after   11 cycles

 The electronic state is 1-A1.
 Alpha  occ. eigenvalues --  -91.95332  -8.96071  -6.64467  -6.64308  -6.64198
 Alpha  occ. eigenvalues --   -0.93313  -0.60540  -0.37841  -0.37063
 Alpha virt. eigenvalues --    0.00513   0.25664   0.45059   0.54354   0.54679
 Alpha virt. eigenvalues --    0.55168   0.83062   0.91187   0.97200   1.05088
 Alpha virt. eigenvalues --    1.05143   1.05256   1.27439   1.55015   1.56877

 Mulliken charges:
               1
     1  S   -0.374293
     2  H    0.187147
     3  H    0.187147
 Sum of Mulliken charges =   0.00000

 Dipole moment (field-independent basis, Debye):
    X=              0.0000    Y=              0.0000    Z=             -1.2668  Tot=              1.2668
 Quadrupole moment (field-independent basis, Debye-Ang):
   XX=            -17.3842   YY=             -8.2004   ZZ=            -16.6098
   XY=              0.0000   XZ=              0.0000   YZ=              0.0000

 Normal termination of Gaussian 09 at Tue Sep 30 07:39:40 2014.
