 Gaussian 09, Revision D.01,
 Gaussian 09:  ES64L-G09RevD.01 24-Apr-2013

 -----------------
 #RHF 6-31G(d',p')
 -----------------

 -------------------
 H2S.r1.30theta112.0
 -------------------
 Symbolic Z-matrix:
 Charge =  0 Multiplicity = 1

                         Standard orientation:
 ---------------------------------------------------------------------
 Center     Atomic      Atomic             Coordinates (Angstroms)
 Number     Number       Type             X           Y           Z
 ---------------------------------------------------------------------
      1         16           0        0.000000    0.000000    0.080772
      2          1           0        0.000000    1.077749   -0.646178
      3          1           0        0.000000   -1.077749   -0.646178
 ---------------------------------------------------------------------

 SCF Done:  E(RHF) =  -398.665614714     A.U. after   10 cycles

 The electronic state is 1-A1.
 Alpha  occ. eigenvalues --  -91.94822  -8.96184  -6.64532  -6.64354  -6.64151
 Alpha  occ. eigenvalues --   -0.99025  -0.63872  -0.46770  -0.38292
 Alpha virt. eigenvalues --    0.18899   0.20654   0.44426   0.46594   0.52406
 Alpha virt. eigenvalues --    0.53596   0.90203   0.90411   0.92674   0.97298
 Alpha virt. eigenvalues --    0.98125   1.32109   1.44683   1.60540   1.74428

 Mulliken charges:
               1
     1  S   -0.088721
     2  H    0.044361
     3  H    0.044361
 Sum of Mulliken charges =   0.00000

 Dipole moment (field-independent basis, Debye):
    X=              0.0000    Y=              0.0000    Z=             -1.4840  Tot=              1.4840
 Quadrupole moment (field-independent basis, Debye-Ang):
   XX=            -16.5923   YY=            -11.4471   ZZ=            -14.4497
   XY=              0.0000   XZ=              0.0000   YZ=              0.0000

 Normal termination of Gaussian 09 at Tue Sep 30 07:34:56 2014.
