 Gaussian 09, Revision D.01,
 Gaussian 09:  ES64L-G09RevD.01 24-Apr-2013

 -----------------
 #RHF 6-31G(d',p')
 -----------------

 -------------------
 H2S.r1.45theta108.0
 -------------------
 Symbolic Z-matrix:
 Charge =  0 Multiplicity = 1

                         Standard orientation:
 ---------------------------------------------------------------------
 Center     Atomic      Atomic             Coordinates (Angstroms)
 Number     Number       Type             X           Y           Z
 ---------------------------------------------------------------------
      1         16           0        0.000000    0.000000    0.094699
      2          1           0        0.000000    1.173075   -0.757590
      3          1           0        0.000000   -1.173075   -0.757590
 ---------------------------------------------------------------------

 SCF Done:  E(RHF) =  -398.656987057     A.U. after   10 cycles

 The electronic state is 1-A1.
 Alpha  occ. eigenvalues --  -91.96998  -8.97629  -6.65898  -6.65782  -6.65584
 Alpha  occ. eigenvalues --   -0.95396  -0.58509  -0.46602  -0.38274
 Alpha virt. eigenvalues --    0.14775   0.16635   0.48420   0.48549   0.51923
 Alpha virt. eigenvalues --    0.53545   0.91344   0.92025   0.93503   0.96067
 Alpha virt. eigenvalues --    0.98771   1.21663   1.33124   1.55637   1.66390

 Mulliken charges:
               1
     1  S   -0.097676
     2  H    0.048838
     3  H    0.048838
 Sum of Mulliken charges =   0.00000

 Dipole moment (field-independent basis, Debye):
    X=              0.0000    Y=              0.0000    Z=             -1.3613  Tot=              1.3613
 Quadrupole moment (field-independent basis, Debye-Ang):
   XX=            -16.9660   YY=            -11.6181   ZZ=            -14.4124
   XY=              0.0000   XZ=              0.0000   YZ=              0.0000

 Normal termination of Gaussian 09 at Tue Sep 30 07:38:01 2014.
