 Gaussian 09, Revision D.01,
 Gaussian 09:  ES64L-G09RevD.01 24-Apr-2013

 -----------------
 #RHF 6-31G(d',p')
 -----------------

 -------------------
 H2S.r1.35theta117.0
 -------------------
 Symbolic Z-matrix:
 Charge =  0 Multiplicity = 1

                         Standard orientation:
 ---------------------------------------------------------------------
 Center     Atomic      Atomic             Coordinates (Angstroms)
 Number     Number       Type             X           Y           Z
 ---------------------------------------------------------------------
      1         16           0        0.000000    0.000000    0.078375
      2          1           0        0.000000    1.151064   -0.626998
      3          1           0        0.000000   -1.151064   -0.626998
 ---------------------------------------------------------------------

 SCF Done:  E(RHF) =  -398.660152149     A.U. after   10 cycles

 The electronic state is 1-A1.
 Alpha  occ. eigenvalues --  -91.95490  -8.96582  -6.64912  -6.64753  -6.64566
 Alpha  occ. eigenvalues --   -0.97611  -0.62875  -0.45665  -0.38219
 Alpha virt. eigenvalues --    0.15929   0.20508   0.44960   0.46940   0.52600
 Alpha virt. eigenvalues --    0.53632   0.90326   0.90631   0.93730   0.97171
 Alpha virt. eigenvalues --    0.99154   1.29065   1.36860   1.60839   1.70139

 Mulliken charges:
               1
     1  S   -0.105394
     2  H    0.052697
     3  H    0.052697
 Sum of Mulliken charges =   0.00000

 Dipole moment (field-independent basis, Debye):
    X=              0.0000    Y=              0.0000    Z=             -1.4847  Tot=              1.4847
 Quadrupole moment (field-independent basis, Debye-Ang):
   XX=            -16.7356   YY=            -11.2130   ZZ=            -14.6906
   XY=              0.0000   XZ=              0.0000   YZ=              0.0000

 Normal termination of Gaussian 09 at Tue Sep 30 07:36:02 2014.
