 Gaussian 09, Revision D.01,
 Gaussian 09:  ES64L-G09RevD.01 24-Apr-2013

 -----------------
 #RHF 6-31G(d',p')
 -----------------

 -------------------
 H2S.r1.80theta146.0
 -------------------
 Symbolic Z-matrix:
 Charge =  0 Multiplicity = 1

                         Standard orientation:
 ---------------------------------------------------------------------
 Center     Atomic      Atomic             Coordinates (Angstroms)
 Number     Number       Type             X           Y           Z
 ---------------------------------------------------------------------
      1         16           0        0.000000    0.000000    0.058474
      2          1           0        0.000000    1.721349   -0.467795
      3          1           0        0.000000   -1.721349   -0.467795
 ---------------------------------------------------------------------

 SCF Done:  E(RHF) =  -398.497800558     A.U. after   11 cycles

 The electronic state is 1-A1.
 Alpha  occ. eigenvalues --  -91.99335  -8.99424  -6.67595  -6.67507  -6.67253
 Alpha  occ. eigenvalues --   -0.90103  -0.51864  -0.39008  -0.38091
 Alpha virt. eigenvalues --   -0.02431   0.13105   0.48575   0.53341   0.53368
 Alpha virt. eigenvalues --    0.58820   0.89573   0.96741   0.98946   1.03313
 Alpha virt. eigenvalues --    1.03622   1.04412   1.07691   1.54017   1.55047

 Mulliken charges:
               1
     1  S   -0.220239
     2  H    0.110120
     3  H    0.110120
 Sum of Mulliken charges =   0.00000

 Dipole moment (field-independent basis, Debye):
    X=              0.0000    Y=              0.0000    Z=             -1.0092  Tot=              1.0092
 Quadrupole moment (field-independent basis, Debye-Ang):
   XX=            -17.7885   YY=             -9.4036   ZZ=            -15.9922
   XY=              0.0000   XZ=              0.0000   YZ=              0.0000

 Normal termination of Gaussian 09 at Tue Sep 30 07:45:46 2014.
