 Gaussian 09, Revision D.01,
 Gaussian 09:  ES64L-G09RevD.01 24-Apr-2013

 -----------------
 #RHF 6-31G(d',p')
 -----------------

 -------------------
 H2S.r1.55theta140.0
 -------------------
 Symbolic Z-matrix:
 Charge =  0 Multiplicity = 1

                         Standard orientation:
 ---------------------------------------------------------------------
 Center     Atomic      Atomic             Coordinates (Angstroms)
 Number     Number       Type             X           Y           Z
 ---------------------------------------------------------------------
      1         16           0        0.000000    0.000000    0.058903
      2          1           0        0.000000    1.456524   -0.471228
      3          1           0        0.000000   -1.456524   -0.471228
 ---------------------------------------------------------------------

 SCF Done:  E(RHF) =  -398.584376719     A.U. after   10 cycles

 The electronic state is 1-A1.
 Alpha  occ. eigenvalues --  -91.97209  -8.97679  -6.65948  -6.65838  -6.65649
 Alpha  occ. eigenvalues --   -0.93093  -0.58393  -0.40947  -0.37855
 Alpha virt. eigenvalues --    0.04026   0.20001   0.46192   0.51548   0.53576
 Alpha virt. eigenvalues --    0.53752   0.86504   0.93308   0.96927   1.02418
 Alpha virt. eigenvalues --    1.03022   1.12122   1.20312   1.58260   1.60345

 Mulliken charges:
               1
     1  S   -0.200531
     2  H    0.100265
     3  H    0.100265
 Sum of Mulliken charges =   0.00000

 Dipole moment (field-independent basis, Debye):
    X=              0.0000    Y=              0.0000    Z=             -1.3651  Tot=              1.3651
 Quadrupole moment (field-independent basis, Debye-Ang):
   XX=            -17.3129   YY=             -9.8486   ZZ=            -15.7365
   XY=              0.0000   XZ=              0.0000   YZ=              0.0000

 Normal termination of Gaussian 09 at Tue Sep 30 07:40:28 2014.
