 Gaussian 09, Revision D.01,
 Gaussian 09:  ES64L-G09RevD.01 24-Apr-2013

 -----------------
 #RHF 6-31G(d',p')
 -----------------

 ------------------
 H2S.r0.90theta80.0
 ------------------
 Symbolic Z-matrix:
 Charge =  0 Multiplicity = 1

                         Standard orientation:
 ---------------------------------------------------------------------
 Center     Atomic      Atomic             Coordinates (Angstroms)
 Number     Number       Type             X           Y           Z
 ---------------------------------------------------------------------
      1         16           0        0.000000    0.000000    0.076604
      2          1           0        0.000000    0.578509   -0.612836
      3          1           0        0.000000   -0.578509   -0.612836
 ---------------------------------------------------------------------

 SCF Done:  E(RHF) =  -398.192136871     A.U. after    9 cycles

 The electronic state is 1-A1.
 Alpha  occ. eigenvalues --  -91.87805  -8.94339  -6.62852  -6.62544  -6.61255
 Alpha  occ. eigenvalues --   -1.16998  -0.68154  -0.54511  -0.39305
 Alpha virt. eigenvalues --    0.22470   0.28776   0.40096   0.47541   0.52249
 Alpha virt. eigenvalues --    0.52614   0.84133   0.86518   0.92285   0.94265
 Alpha virt. eigenvalues --    1.08706   1.68734   1.77089   1.96042   2.00548

 Mulliken charges:
               1
     1  S    0.116812
     2  H   -0.058406
     3  H   -0.058406
 Sum of Mulliken charges =   0.00000

 Dipole moment (field-independent basis, Debye):
    X=              0.0000    Y=              0.0000    Z=             -1.2231  Tot=              1.2231
 Quadrupole moment (field-independent basis, Debye-Ang):
   XX=            -15.5201   YY=            -12.2541   ZZ=            -12.8840
   XY=              0.0000   XZ=              0.0000   YZ=              0.0000

 Normal termination of Gaussian 09 at Tue Sep 30 07:26:19 2014.
