 Gaussian 09, Revision D.01,
 Gaussian 09:  ES64L-G09RevD.01 24-Apr-2013

 -----------------
 #RHF 6-31G(d',p')
 -----------------

 ------------------
 H2S.r1.40theta83.0
 ------------------
 Symbolic Z-matrix:
 Charge =  0 Multiplicity = 1

                         Standard orientation:
 ---------------------------------------------------------------------
 Center     Atomic      Atomic             Coordinates (Angstroms)
 Number     Number       Type             X           Y           Z
 ---------------------------------------------------------------------
      1         16           0        0.000000    0.000000    0.116504
      2          1           0        0.000000    0.927668   -0.932034
      3          1           0        0.000000   -0.927668   -0.932034
 ---------------------------------------------------------------------

 SCF Done:  E(RHF) =  -398.667942254     A.U. after   10 cycles

 The electronic state is 1-A1.
 Alpha  occ. eigenvalues --  -91.96649  -8.97448  -6.65692  -6.65612  -6.65371
 Alpha  occ. eigenvalues --   -0.97014  -0.55381  -0.51052  -0.38468
 Alpha virt. eigenvalues --    0.14613   0.19537   0.49248   0.50231   0.50474
 Alpha virt. eigenvalues --    0.53466   0.87136   0.89004   0.94895   0.95843
 Alpha virt. eigenvalues --    0.98487   1.25501   1.33991   1.65318   1.72726

 Mulliken charges:
               1
     1  S   -0.057240
     2  H    0.028620
     3  H    0.028620
 Sum of Mulliken charges =   0.00000

 Dipole moment (field-independent basis, Debye):
    X=              0.0000    Y=              0.0000    Z=             -1.2521  Tot=              1.2521
 Quadrupole moment (field-independent basis, Debye-Ang):
   XX=            -16.8274   YY=            -12.8713   ZZ=            -13.3381
   XY=              0.0000   XZ=              0.0000   YZ=              0.0000

 Normal termination of Gaussian 09 at Tue Sep 30 07:36:41 2014.
