 Gaussian 09, Revision D.01,
 Gaussian 09:  ES64L-G09RevD.01 24-Apr-2013

 -----------------
 #RHF 6-31G(d',p')
 -----------------

 -------------------
 H2S.r1.45theta125.0
 -------------------
 Symbolic Z-matrix:
 Charge =  0 Multiplicity = 1

                         Standard orientation:
 ---------------------------------------------------------------------
 Center     Atomic      Atomic             Coordinates (Angstroms)
 Number     Number       Type             X           Y           Z
 ---------------------------------------------------------------------
      1         16           0        0.000000    0.000000    0.074393
      2          1           0        0.000000    1.286166   -0.595143
      3          1           0        0.000000   -1.286166   -0.595143
 ---------------------------------------------------------------------

 SCF Done:  E(RHF) =  -398.635912052     A.U. after   10 cycles

 The electronic state is 1-A1.
 Alpha  occ. eigenvalues --  -91.96625  -8.97316  -6.65607  -6.65482  -6.65298
 Alpha  occ. eigenvalues --   -0.95194  -0.60468  -0.43840  -0.38099
 Alpha virt. eigenvalues --    0.10643   0.19710   0.45972   0.48285   0.52907
 Alpha virt. eigenvalues --    0.53661   0.88956   0.91874   0.95022   0.99071
 Alpha virt. eigenvalues --    1.00864   1.23742   1.24792   1.60283   1.63898

 Mulliken charges:
               1
     1  S   -0.135440
     2  H    0.067720
     3  H    0.067720
 Sum of Mulliken charges =   0.00000

 Dipole moment (field-independent basis, Debye):
    X=              0.0000    Y=              0.0000    Z=             -1.4420  Tot=              1.4420
 Quadrupole moment (field-independent basis, Debye-Ang):
   XX=            -17.0114   YY=            -10.7706   ZZ=            -15.0888
   XY=              0.0000   XZ=              0.0000   YZ=              0.0000

 Normal termination of Gaussian 09 at Tue Sep 30 07:38:13 2014.
