 Gaussian 09, Revision D.01,
 Gaussian 09:  ES64L-G09RevD.01 24-Apr-2013

 -----------------
 #RHF 6-31G(d',p')
 -----------------

 -------------------
 H2S.r1.15theta152.0
 -------------------
 Symbolic Z-matrix:
 Charge =  0 Multiplicity = 1

                         Standard orientation:
 ---------------------------------------------------------------------
 Center     Atomic      Atomic             Coordinates (Angstroms)
 Number     Number       Type             X           Y           Z
 ---------------------------------------------------------------------
      1         16           0        0.000000    0.000000    0.030912
      2          1           0        0.000000    1.115840   -0.247298
      3          1           0        0.000000   -1.115840   -0.247298
 ---------------------------------------------------------------------

 SCF Done:  E(RHF) =  -398.545061792     A.U. after   10 cycles

 The electronic state is 1-A1.
 Alpha  occ. eigenvalues --  -91.92017  -8.94866  -6.63545  -6.62989  -6.62902
 Alpha  occ. eigenvalues --   -1.03469  -0.73669  -0.40493  -0.38474
 Alpha virt. eigenvalues --    0.12809   0.34297   0.39359   0.43504   0.53308
 Alpha virt. eigenvalues --    0.53590   0.81753   0.84394   0.98097   1.02744
 Alpha virt. eigenvalues --    1.02879   1.32121   1.52440   1.65409   1.83528

 Mulliken charges:
               1
     1  S   -0.209820
     2  H    0.104910
     3  H    0.104910
 Sum of Mulliken charges =   0.00000

 Dipole moment (field-independent basis, Debye):
    X=              0.0000    Y=              0.0000    Z=             -1.4720  Tot=              1.4720
 Quadrupole moment (field-independent basis, Debye-Ang):
   XX=            -16.2401   YY=            -10.1657   ZZ=            -15.6373
   XY=              0.0000   XZ=              0.0000   YZ=              0.0000

 Normal termination of Gaussian 09 at Tue Sep 30 07:32:17 2014.
