 Gaussian 09, Revision D.01,
 Gaussian 09:  ES64L-G09RevD.01 24-Apr-2013

 -----------------
 #RHF 6-31G(d',p')
 -----------------

 ------------------
 H2S.r1.45theta78.0
 ------------------
 Symbolic Z-matrix:
 Charge =  0 Multiplicity = 1

                         Standard orientation:
 ---------------------------------------------------------------------
 Center     Atomic      Atomic             Coordinates (Angstroms)
 Number     Number       Type             X           Y           Z
 ---------------------------------------------------------------------
      1         16           0        0.000000    0.000000    0.125207
      2          1           0        0.000000    0.912515   -1.001655
      3          1           0        0.000000   -0.912515   -1.001655
 ---------------------------------------------------------------------

 SCF Done:  E(RHF) =  -398.656464978     A.U. after   10 cycles

 The electronic state is 1-A1.
 Alpha  occ. eigenvalues --  -91.97345  -8.97956  -6.66177  -6.66113  -6.65866
 Alpha  occ. eigenvalues --   -0.96012  -0.53048  -0.51431  -0.38517
 Alpha virt. eigenvalues --    0.13051   0.17863   0.49869   0.49982   0.51257
 Alpha virt. eigenvalues --    0.53402   0.88714   0.89079   0.94922   0.97163
 Alpha virt. eigenvalues --    0.97196   1.23402   1.27966   1.63211   1.65972

 Mulliken charges:
               1
     1  S   -0.062545
     2  H    0.031273
     3  H    0.031273
 Sum of Mulliken charges =   0.00000

 Dipole moment (field-independent basis, Debye):
    X=              0.0000    Y=              0.0000    Z=             -1.2310  Tot=              1.2310
 Quadrupole moment (field-independent basis, Debye-Ang):
   XX=            -16.9509   YY=            -13.2046   ZZ=            -13.1042
   XY=              0.0000   XZ=              0.0000   YZ=              0.0000

 Normal termination of Gaussian 09 at Tue Sep 30 07:37:40 2014.
