 Gaussian 09, Revision D.01,
 Gaussian 09:  ES64L-G09RevD.01 24-Apr-2013

 -----------------
 #RHF 6-31G(d',p')
 -----------------

 ------------------
 H2S.r0.65theta96.0
 ------------------
 Symbolic Z-matrix:
 Charge =  0 Multiplicity = 1

                         Standard orientation:
 ---------------------------------------------------------------------
 Center     Atomic      Atomic             Coordinates (Angstroms)
 Number     Number       Type             X           Y           Z
 ---------------------------------------------------------------------
      1         16           0        0.000000    0.000000    0.048326
      2          1           0        0.000000    0.483044   -0.386609
      3          1           0        0.000000   -0.483044   -0.386609
 ---------------------------------------------------------------------

 SCF Done:  E(RHF) =  -396.536059589     A.U. after   10 cycles

 The electronic state is 1-A1.
 Alpha  occ. eigenvalues --  -91.88246  -9.04205  -6.73588  -6.71894  -6.67311
 Alpha  occ. eigenvalues --   -1.24659  -0.78513  -0.52113  -0.40873
 Alpha virt. eigenvalues --    0.21183   0.23005   0.48882   0.50901   0.51740
 Alpha virt. eigenvalues --    0.61977   0.86039   0.88411   0.92433   0.95533
 Alpha virt. eigenvalues --    1.02225   2.01081   2.02165   2.14238   2.30508

 Mulliken charges:
               1
     1  S    0.583077
     2  H   -0.291538
     3  H   -0.291538
 Sum of Mulliken charges =   0.00000

 Dipole moment (field-independent basis, Debye):
    X=              0.0000    Y=              0.0000    Z=             -1.2243  Tot=              1.2243
 Quadrupole moment (field-independent basis, Debye-Ang):
   XX=            -14.7339   YY=            -11.7880   ZZ=            -13.0749
   XY=              0.0000   XZ=              0.0000   YZ=              0.0000

 Normal termination of Gaussian 09 at Tue Sep 30 07:21:23 2014.
