 Gaussian 09, Revision D.01,
 Gaussian 09:  ES64L-G09RevD.01 24-Apr-2013

 -----------------
 #RHF 6-31G(d',p')
 -----------------

 -------------------
 H2S.r0.70theta130.0
 -------------------
 Symbolic Z-matrix:
 Charge =  0 Multiplicity = 1

                         Standard orientation:
 ---------------------------------------------------------------------
 Center     Atomic      Atomic             Coordinates (Angstroms)
 Number     Number       Type             X           Y           Z
 ---------------------------------------------------------------------
      1         16           0        0.000000    0.000000    0.032870
      2          1           0        0.000000    0.634415   -0.262962
      3          1           0        0.000000   -0.634415   -0.262962
 ---------------------------------------------------------------------

 SCF Done:  E(RHF) =  -397.040954809     A.U. after   10 cycles

 The electronic state is 1-A1.
 Alpha  occ. eigenvalues --  -91.87278  -9.00933  -6.72196  -6.66847  -6.65460
 Alpha  occ. eigenvalues --   -1.21212  -0.87031  -0.45848  -0.40805
 Alpha virt. eigenvalues --    0.20621   0.24661   0.48054   0.51030   0.51060
 Alpha virt. eigenvalues --    0.51843   0.86580   0.87036   0.94277   0.99256
 Alpha virt. eigenvalues --    0.99433   1.88327   1.95215   2.08900   2.17723

 Mulliken charges:
               1
     1  S    0.547877
     2  H   -0.273939
     3  H   -0.273939
 Sum of Mulliken charges =   0.00000

 Dipole moment (field-independent basis, Debye):
    X=              0.0000    Y=              0.0000    Z=             -1.5376  Tot=              1.5376
 Quadrupole moment (field-independent basis, Debye-Ang):
   XX=            -14.7716   YY=            -11.5401   ZZ=            -13.8703
   XY=              0.0000   XZ=              0.0000   YZ=              0.0000

 Normal termination of Gaussian 09 at Tue Sep 30 07:22:47 2014.
