 Gaussian 09, Revision D.01,
 Gaussian 09:  ES64L-G09RevD.01 24-Apr-2013

 -----------------
 #RHF 6-31G(d',p')
 -----------------

 -------------------
 H2S.r1.80theta136.0
 -------------------
 Symbolic Z-matrix:
 Charge =  0 Multiplicity = 1

                         Standard orientation:
 ---------------------------------------------------------------------
 Center     Atomic      Atomic             Coordinates (Angstroms)
 Number     Number       Type             X           Y           Z
 ---------------------------------------------------------------------
      1         16           0        0.000000    0.000000    0.074921
      2          1           0        0.000000    1.668931   -0.599371
      3          1           0        0.000000   -1.668931   -0.599371
 ---------------------------------------------------------------------

 SCF Done:  E(RHF) =  -398.516363715     A.U. after   11 cycles

 The electronic state is 1-A1.
 Alpha  occ. eigenvalues --  -91.99736  -8.99782  -6.67945  -6.67866  -6.67605
 Alpha  occ. eigenvalues --   -0.90315  -0.51540  -0.40360  -0.38299
 Alpha virt. eigenvalues --   -0.00449   0.11843   0.49085   0.53184   0.53220
 Alpha virt. eigenvalues --    0.56408   0.90907   0.96003   0.99066   1.02455
 Alpha virt. eigenvalues --    1.03071   1.06131   1.07353   1.53945   1.55193

 Mulliken charges:
               1
     1  S   -0.184162
     2  H    0.092081
     3  H    0.092081
 Sum of Mulliken charges =   0.00000

 Dipole moment (field-independent basis, Debye):
    X=              0.0000    Y=              0.0000    Z=             -1.0480  Tot=              1.0480
 Quadrupole moment (field-independent basis, Debye-Ang):
   XX=            -17.7381   YY=             -9.9781   ZZ=            -15.6468
   XY=              0.0000   XZ=              0.0000   YZ=              0.0000

 Normal termination of Gaussian 09 at Tue Sep 30 07:45:40 2014.
