 Gaussian 09, Revision D.01,
 Gaussian 09:  ES64L-G09RevD.01 24-Apr-2013

 -----------------
 #RHF 6-31G(d',p')
 -----------------

 ------------------
 H2S.r1.60theta86.0
 ------------------
 Symbolic Z-matrix:
 Charge =  0 Multiplicity = 1

                         Standard orientation:
 ---------------------------------------------------------------------
 Center     Atomic      Atomic             Coordinates (Angstroms)
 Number     Number       Type             X           Y           Z
 ---------------------------------------------------------------------
      1         16           0        0.000000    0.000000    0.130018
      2          1           0        0.000000    1.091197   -1.040147
      3          1           0        0.000000   -1.091197   -1.040147
 ---------------------------------------------------------------------

 SCF Done:  E(RHF) =  -398.622939177     A.U. after   10 cycles

 The electronic state is 1-A1.
 Alpha  occ. eigenvalues --  -91.99006  -8.99215  -6.67415  -6.67334  -6.67097
 Alpha  occ. eigenvalues --   -0.93077  -0.51268  -0.48611  -0.38565
 Alpha virt. eigenvalues --    0.10257   0.13032   0.49503   0.50834   0.53217
 Alpha virt. eigenvalues --    0.55769   0.90286   0.92477   0.94906   0.98206
 Alpha virt. eigenvalues --    0.98258   1.14363   1.20568   1.58330   1.59867

 Mulliken charges:
               1
     1  S   -0.096591
     2  H    0.048295
     3  H    0.048295
 Sum of Mulliken charges =   0.00000

 Dipole moment (field-independent basis, Debye):
    X=              0.0000    Y=              0.0000    Z=             -1.2135  Tot=              1.2135
 Quadrupole moment (field-independent basis, Debye-Ang):
   XX=            -17.2832   YY=            -12.8858   ZZ=            -13.4268
   XY=              0.0000   XZ=              0.0000   YZ=              0.0000

 Normal termination of Gaussian 09 at Tue Sep 30 07:40:54 2014.
