 Gaussian 09, Revision D.01,
 Gaussian 09:  ES64L-G09RevD.01 24-Apr-2013

 -----------------
 #RHF 6-31G(d',p')
 -----------------

 ------------------
 H2S.r1.80theta93.0
 ------------------
 Symbolic Z-matrix:
 Charge =  0 Multiplicity = 1

                         Standard orientation:
 ---------------------------------------------------------------------
 Center     Atomic      Atomic             Coordinates (Angstroms)
 Number     Number       Type             X           Y           Z
 ---------------------------------------------------------------------
      1         16           0        0.000000    0.000000    0.137671
      2          1           0        0.000000    1.305674   -1.101367
      3          1           0        0.000000   -1.305674   -1.101367
 ---------------------------------------------------------------------

 SCF Done:  E(RHF) =  -398.555666964     A.U. after   10 cycles

 The electronic state is 1-A1.
 Alpha  occ. eigenvalues --  -92.00661  -9.00595  -6.68752  -6.68678  -6.68409
 Alpha  occ. eigenvalues --   -0.90791  -0.48142  -0.45548  -0.38751
 Alpha virt. eigenvalues --    0.06472   0.06846   0.48743   0.52810   0.52907
 Alpha virt. eigenvalues --    0.58930   0.92760   0.94645   0.97987   1.00322
 Alpha virt. eigenvalues --    1.00940   1.06281   1.11016   1.54366   1.54370

 Mulliken charges:
               1
     1  S   -0.131458
     2  H    0.065729
     3  H    0.065729
 Sum of Mulliken charges =   0.00000

 Dipole moment (field-independent basis, Debye):
    X=              0.0000    Y=              0.0000    Z=             -1.1453  Tot=              1.1453
 Quadrupole moment (field-independent basis, Debye-Ang):
   XX=            -17.6564   YY=            -12.4865   ZZ=            -13.6704
   XY=              0.0000   XZ=              0.0000   YZ=              0.0000

 Normal termination of Gaussian 09 at Tue Sep 30 07:45:11 2014.
