 Gaussian 09, Revision D.01,
 Gaussian 09:  ES64L-G09RevD.01 24-Apr-2013

 -----------------
 #RHF 6-31G(d',p')
 -----------------

 -------------------
 H2S.r1.50theta107.0
 -------------------
 Symbolic Z-matrix:
 Charge =  0 Multiplicity = 1

                         Standard orientation:
 ---------------------------------------------------------------------
 Center     Atomic      Atomic             Coordinates (Angstroms)
 Number     Number       Type             X           Y           Z
 ---------------------------------------------------------------------
      1         16           0        0.000000    0.000000    0.099137
      2          1           0        0.000000    1.205785   -0.793097
      3          1           0        0.000000   -1.205785   -0.793097
 ---------------------------------------------------------------------

 SCF Done:  E(RHF) =  -398.646642908     A.U. after   10 cycles

 The electronic state is 1-A1.
 Alpha  occ. eigenvalues --  -91.97623  -8.98091  -6.66340  -6.66234  -6.66030
 Alpha  occ. eigenvalues --   -0.94428  -0.56932  -0.46420  -0.38300
 Alpha virt. eigenvalues --    0.13374   0.15280   0.49038   0.49553   0.51969
 Alpha virt. eigenvalues --    0.53487   0.91767   0.91894   0.94589   0.95956
 Alpha virt. eigenvalues --    0.99142   1.18790   1.29066   1.55062   1.63987

 Mulliken charges:
               1
     1  S   -0.101792
     2  H    0.050896
     3  H    0.050896
 Sum of Mulliken charges =   0.00000

 Dipole moment (field-independent basis, Debye):
    X=              0.0000    Y=              0.0000    Z=             -1.3213  Tot=              1.3213
 Quadrupole moment (field-independent basis, Debye-Ang):
   XX=            -17.0806   YY=            -11.6670   ZZ=            -14.3933
   XY=              0.0000   XZ=              0.0000   YZ=              0.0000

 Normal termination of Gaussian 09 at Tue Sep 30 07:39:03 2014.
