 Gaussian 09, Revision D.01,
 Gaussian 09:  ES64L-G09RevD.01 24-Apr-2013

 -----------------
 #RHF 6-31G(d',p')
 -----------------

 ------------------
 H2S.r1.55theta90.0
 ------------------
 Symbolic Z-matrix:
 Charge =  0 Multiplicity = 1

                         Standard orientation:
 ---------------------------------------------------------------------
 Center     Atomic      Atomic             Coordinates (Angstroms)
 Number     Number       Type             X           Y           Z
 ---------------------------------------------------------------------
      1         16           0        0.000000    0.000000    0.121780
      2          1           0        0.000000    1.096016   -0.974236
      3          1           0        0.000000   -1.096016   -0.974236
 ---------------------------------------------------------------------

 SCF Done:  E(RHF) =  -398.638658882     A.U. after   10 cycles

 The electronic state is 1-A1.
 Alpha  occ. eigenvalues --  -91.98446  -8.98762  -6.66980  -6.66889  -6.66665
 Alpha  occ. eigenvalues --   -0.93791  -0.53080  -0.48541  -0.38489
 Alpha virt. eigenvalues --    0.11841   0.14294   0.49980   0.50171   0.53317
 Alpha virt. eigenvalues --    0.54338   0.90222   0.91454   0.95332   0.97140
 Alpha virt. eigenvalues --    0.97895   1.16380   1.24906   1.58753   1.60128

 Mulliken charges:
               1
     1  S   -0.090764
     2  H    0.045382
     3  H    0.045382
 Sum of Mulliken charges =   0.00000

 Dipole moment (field-independent basis, Debye):
    X=              0.0000    Y=              0.0000    Z=             -1.2353  Tot=              1.2353
 Quadrupole moment (field-independent basis, Debye-Ang):
   XX=            -17.1766   YY=            -12.6178   ZZ=            -13.6385
   XY=              0.0000   XZ=              0.0000   YZ=              0.0000

 Normal termination of Gaussian 09 at Tue Sep 30 07:39:54 2014.
