 Gaussian 09, Revision D.01,
 Gaussian 09:  ES64L-G09RevD.01 24-Apr-2013

 -----------------
 #RHF 6-31G(d',p')
 -----------------

 -------------------
 H2S.r0.85theta108.0
 -------------------
 Symbolic Z-matrix:
 Charge =  0 Multiplicity = 1

                         Standard orientation:
 ---------------------------------------------------------------------
 Center     Atomic      Atomic             Coordinates (Angstroms)
 Number     Number       Type             X           Y           Z
 ---------------------------------------------------------------------
      1         16           0        0.000000    0.000000    0.055513
      2          1           0        0.000000    0.687664   -0.444104
      3          1           0        0.000000   -0.687664   -0.444104
 ---------------------------------------------------------------------

 SCF Done:  E(RHF) =  -398.020357817     A.U. after    9 cycles

 The electronic state is 1-A1.
 Alpha  occ. eigenvalues --  -91.87049  -8.95019  -6.64003  -6.62803  -6.61606
 Alpha  occ. eigenvalues --   -1.16559  -0.79011  -0.49165  -0.39575
 Alpha virt. eigenvalues --    0.24140   0.26533   0.41602   0.46533   0.51971
 Alpha virt. eigenvalues --    0.52307   0.87021   0.89330   0.90698   0.96996
 Alpha virt. eigenvalues --    1.03652   1.74999   1.82590   1.96914   2.02998

 Mulliken charges:
               1
     1  S    0.222011
     2  H   -0.111005
     3  H   -0.111005
 Sum of Mulliken charges =   0.00000

 Dipole moment (field-independent basis, Debye):
    X=              0.0000    Y=              0.0000    Z=             -1.5130  Tot=              1.5130
 Quadrupole moment (field-independent basis, Debye-Ang):
   XX=            -15.3090   YY=            -11.6028   ZZ=            -13.6441
   XY=              0.0000   XZ=              0.0000   YZ=              0.0000

 Normal termination of Gaussian 09 at Tue Sep 30 07:25:37 2014.
