 Gaussian 09, Revision D.01,
 Gaussian 09:  ES64L-G09RevD.01 24-Apr-2013

 -----------------
 #RHF 6-31G(d',p')
 -----------------

 -------------------
 H2S.r1.00theta133.0
 -------------------
 Symbolic Z-matrix:
 Charge =  0 Multiplicity = 1

                         Standard orientation:
 ---------------------------------------------------------------------
 Center     Atomic      Atomic             Coordinates (Angstroms)
 Number     Number       Type             X           Y           Z
 ---------------------------------------------------------------------
      1         16           0        0.000000    0.000000    0.044305
      2          1           0        0.000000    0.917060   -0.354444
      3          1           0        0.000000   -0.917060   -0.354444
 ---------------------------------------------------------------------

 SCF Done:  E(RHF) =  -398.415028482     A.U. after   10 cycles

 The electronic state is 1-A1.
 Alpha  occ. eigenvalues --  -91.89718  -8.94497  -6.63386  -6.62338  -6.62055
 Alpha  occ. eigenvalues --   -1.09482  -0.78334  -0.44120  -0.39110
 Alpha virt. eigenvalues --    0.21640   0.27742   0.37526   0.44553   0.52776
 Alpha virt. eigenvalues --    0.52809   0.85304   0.86653   0.96950   0.99875
 Alpha virt. eigenvalues --    1.00289   1.50943   1.60513   1.82671   1.95773

 Mulliken charges:
               1
     1  S   -0.020226
     2  H    0.010113
     3  H    0.010113
 Sum of Mulliken charges =   0.00000

 Dipole moment (field-independent basis, Debye):
    X=              0.0000    Y=              0.0000    Z=             -1.6763  Tot=              1.6763
 Quadrupole moment (field-independent basis, Debye-Ang):
   XX=            -15.7210   YY=            -11.0688   ZZ=            -14.6495
   XY=              0.0000   XZ=              0.0000   YZ=              0.0000

 Normal termination of Gaussian 09 at Tue Sep 30 07:28:57 2014.
