 Gaussian 09, Revision D.01,
 Gaussian 09:  ES64L-G09RevD.01 24-Apr-2013

 -----------------
 #RHF 6-31G(d',p')
 -----------------

 -------------------
 H2S.r1.15theta126.0
 -------------------
 Symbolic Z-matrix:
 Charge =  0 Multiplicity = 1

                         Standard orientation:
 ---------------------------------------------------------------------
 Center     Atomic      Atomic             Coordinates (Angstroms)
 Number     Number       Type             X           Y           Z
 ---------------------------------------------------------------------
      1         16           0        0.000000    0.000000    0.058010
      2          1           0        0.000000    1.024658   -0.464079
      3          1           0        0.000000   -1.024658   -0.464079
 ---------------------------------------------------------------------

 SCF Done:  E(RHF) =  -398.599009379     A.U. after   10 cycles

 The electronic state is 1-A1.
 Alpha  occ. eigenvalues --  -91.92232  -8.94906  -6.63442  -6.63013  -6.62801
 Alpha  occ. eigenvalues --   -1.03695  -0.71404  -0.44843  -0.38525
 Alpha virt. eigenvalues --    0.19946   0.25845   0.39679   0.44558   0.53060
 Alpha virt. eigenvalues --    0.53362   0.86887   0.88589   0.95757   0.98810
 Alpha virt. eigenvalues --    0.99612   1.44197   1.46616   1.76769   1.78947

 Mulliken charges:
               1
     1  S   -0.095815
     2  H    0.047907
     3  H    0.047907
 Sum of Mulliken charges =   0.00000

 Dipole moment (field-independent basis, Debye):
    X=              0.0000    Y=              0.0000    Z=             -1.6443  Tot=              1.6443
 Quadrupole moment (field-independent basis, Debye-Ang):
   XX=            -16.1878   YY=            -11.0234   ZZ=            -14.7344
   XY=              0.0000   XZ=              0.0000   YZ=              0.0000

 Normal termination of Gaussian 09 at Tue Sep 30 07:31:59 2014.
