 Gaussian 09, Revision D.01,
 Gaussian 09:  ES64L-G09RevD.01 24-Apr-2013

 -----------------
 #RHF 6-31G(d',p')
 -----------------

 ------------------
 H2S.r1.60theta99.0
 ------------------
 Symbolic Z-matrix:
 Charge =  0 Multiplicity = 1

                         Standard orientation:
 ---------------------------------------------------------------------
 Center     Atomic      Atomic             Coordinates (Angstroms)
 Number     Number       Type             X           Y           Z
 ---------------------------------------------------------------------
      1         16           0        0.000000    0.000000    0.115457
      2          1           0        0.000000    1.216650   -0.923659
      3          1           0        0.000000   -1.216650   -0.923659
 ---------------------------------------------------------------------

 SCF Done:  E(RHF) =  -398.622758218     A.U. after   10 cycles

 The electronic state is 1-A1.
 Alpha  occ. eigenvalues --  -91.98844  -8.99059  -6.67272  -6.67178  -6.66954
 Alpha  occ. eigenvalues --   -0.92894  -0.53238  -0.46788  -0.38452
 Alpha virt. eigenvalues --    0.11680   0.11748   0.50059   0.50386   0.53290
 Alpha virt. eigenvalues --    0.54255   0.91219   0.92794   0.95575   0.97179
 Alpha virt. eigenvalues --    0.99400   1.13700   1.22218   1.54849   1.59360

 Mulliken charges:
               1
     1  S   -0.105673
     2  H    0.052836
     3  H    0.052836
 Sum of Mulliken charges =   0.00000

 Dipole moment (field-independent basis, Debye):
    X=              0.0000    Y=              0.0000    Z=             -1.2319  Tot=              1.2319
 Quadrupole moment (field-independent basis, Debye-Ang):
   XX=            -17.2874   YY=            -12.1111   ZZ=            -14.0529
   XY=              0.0000   XZ=              0.0000   YZ=              0.0000

 Normal termination of Gaussian 09 at Tue Sep 30 07:41:03 2014.
