 Gaussian 09, Revision D.01,
 Gaussian 09:  ES64L-G09RevD.01 24-Apr-2013

 -----------------
 #RHF 6-31G(d',p')
 -----------------

 ------------------
 H2S.r1.65theta74.0
 ------------------
 Symbolic Z-matrix:
 Charge =  0 Multiplicity = 1

                         Standard orientation:
 ---------------------------------------------------------------------
 Center     Atomic      Atomic             Coordinates (Angstroms)
 Number     Number       Type             X           Y           Z
 ---------------------------------------------------------------------
      1         16           0        0.000000    0.000000    0.146417
      2          1           0        0.000000    0.992995   -1.171332
      3          1           0        0.000000   -0.992995   -1.171332
 ---------------------------------------------------------------------

 SCF Done:  E(RHF) =  -398.599972164     A.U. after   10 cycles

 The electronic state is 1-A1.
 Alpha  occ. eigenvalues --  -91.99513  -8.99653  -6.67815  -6.67774  -6.67501
 Alpha  occ. eigenvalues --   -0.92601  -0.49776  -0.48135  -0.38684
 Alpha virt. eigenvalues --    0.08152   0.11679   0.48594   0.51859   0.53091
 Alpha virt. eigenvalues --    0.56046   0.90652   0.94079   0.94514   0.97888
 Alpha virt. eigenvalues --    0.99889   1.13911   1.13996   1.56226   1.56916

 Mulliken charges:
               1
     1  S   -0.100013
     2  H    0.050006
     3  H    0.050006
 Sum of Mulliken charges =   0.00000

 Dipole moment (field-independent basis, Debye):
    X=              0.0000    Y=              0.0000    Z=             -1.2195  Tot=              1.2195
 Quadrupole moment (field-independent basis, Debye-Ang):
   XX=            -17.3917   YY=            -13.6852   ZZ=            -12.7618
   XY=              0.0000   XZ=              0.0000   YZ=              0.0000

 Normal termination of Gaussian 09 at Tue Sep 30 07:41:48 2014.
