 Gaussian 09, Revision D.01,
 Gaussian 09:  ES64L-G09RevD.01 24-Apr-2013

 -----------------
 #RHF 6-31G(d',p')
 -----------------

 ------------------
 H2S.r0.60theta90.0
 ------------------
 Symbolic Z-matrix:
 Charge =  0 Multiplicity = 1

                         Standard orientation:
 ---------------------------------------------------------------------
 Center     Atomic      Atomic             Coordinates (Angstroms)
 Number     Number       Type             X           Y           Z
 ---------------------------------------------------------------------
      1         16           0        0.000000    0.000000    0.047140
      2          1           0        0.000000    0.424264   -0.377124
      3          1           0        0.000000   -0.424264   -0.377124
 ---------------------------------------------------------------------

 SCF Done:  E(RHF) =  -395.849107020     A.U. after    9 cycles

 The electronic state is 1-A1.
 Alpha  occ. eigenvalues --  -91.91458  -9.10328  -6.79236  -6.78267  -6.71535
 Alpha  occ. eigenvalues --   -1.26311  -0.75888  -0.53463  -0.41442
 Alpha virt. eigenvalues --    0.20234   0.22818   0.48143   0.50227   0.53574
 Alpha virt. eigenvalues --    0.68533   0.86500   0.86938   0.93424   0.94715
 Alpha virt. eigenvalues --    0.99997   2.06523   2.06995   2.17859   2.31264

 Mulliken charges:
               1
     1  S    0.689527
     2  H   -0.344763
     3  H   -0.344763
 Sum of Mulliken charges =   0.00000

 Dipole moment (field-independent basis, Debye):
    X=              0.0000    Y=              0.0000    Z=             -1.0898  Tot=              1.0898
 Quadrupole moment (field-independent basis, Debye-Ang):
   XX=            -14.5762   YY=            -11.8760   ZZ=            -12.9085
   XY=              0.0000   XZ=              0.0000   YZ=              0.0000

 Normal termination of Gaussian 09 at Tue Sep 30 07:20:18 2014.
