 Gaussian 09, Revision D.01,
 Gaussian 09:  ES64L-G09RevD.01 24-Apr-2013

 -----------------
 #RHF 6-31G(d',p')
 -----------------

 -------------------
 H2S.r1.00theta135.0
 -------------------
 Symbolic Z-matrix:
 Charge =  0 Multiplicity = 1

                         Standard orientation:
 ---------------------------------------------------------------------
 Center     Atomic      Atomic             Coordinates (Angstroms)
 Number     Number       Type             X           Y           Z
 ---------------------------------------------------------------------
      1         16           0        0.000000    0.000000    0.042520
      2          1           0        0.000000    0.923880   -0.340163
      3          1           0        0.000000   -0.923880   -0.340163
 ---------------------------------------------------------------------

 SCF Done:  E(RHF) =  -398.411157777     A.U. after   10 cycles

 The electronic state is 1-A1.
 Alpha  occ. eigenvalues --  -91.89738  -8.94531  -6.63439  -6.62361  -6.62098
 Alpha  occ. eigenvalues --   -1.09463  -0.78572  -0.43779  -0.39126
 Alpha virt. eigenvalues --    0.21087   0.28129   0.37532   0.44572   0.52756
 Alpha virt. eigenvalues --    0.52838   0.85074   0.86035   0.97392   1.00120
 Alpha virt. eigenvalues --    1.00527   1.49907   1.60672   1.81524   1.97256

 Mulliken charges:
               1
     1  S   -0.025617
     2  H    0.012809
     3  H    0.012809
 Sum of Mulliken charges =   0.00000

 Dipole moment (field-independent basis, Debye):
    X=              0.0000    Y=              0.0000    Z=             -1.6707  Tot=              1.6707
 Quadrupole moment (field-independent basis, Debye-Ang):
   XX=            -15.7196   YY=            -11.0312   ZZ=            -14.7096
   XY=              0.0000   XZ=              0.0000   YZ=              0.0000

 Normal termination of Gaussian 09 at Tue Sep 30 07:28:59 2014.
