 Gaussian 09, Revision D.01,
 Gaussian 09:  ES64L-G09RevD.01 24-Apr-2013

 -----------------
 #RHF 6-31G(d',p')
 -----------------

 -------------------
 H2S.r1.70theta145.0
 -------------------
 Symbolic Z-matrix:
 Charge =  0 Multiplicity = 1

                         Standard orientation:
 ---------------------------------------------------------------------
 Center     Atomic      Atomic             Coordinates (Angstroms)
 Number     Number       Type             X           Y           Z
 ---------------------------------------------------------------------
      1         16           0        0.000000    0.000000    0.056800
      2          1           0        0.000000    1.621319   -0.454400
      3          1           0        0.000000   -1.621319   -0.454400
 ---------------------------------------------------------------------

 SCF Done:  E(RHF) =  -398.530630313     A.U. after   11 cycles

 The electronic state is 1-A1.
 Alpha  occ. eigenvalues --  -91.98453  -8.98665  -6.66875  -6.66778  -6.66552
 Alpha  occ. eigenvalues --   -0.90990  -0.54332  -0.39574  -0.37905
 Alpha virt. eigenvalues --   -0.00442   0.16107   0.47734   0.53498   0.53581
 Alpha virt. eigenvalues --    0.56270   0.87612   0.96502   0.96902   1.03327
 Alpha virt. eigenvalues --    1.03658   1.06431   1.12274   1.55833   1.56080

 Mulliken charges:
               1
     1  S   -0.222268
     2  H    0.111134
     3  H    0.111134
 Sum of Mulliken charges =   0.00000

 Dipole moment (field-independent basis, Debye):
    X=              0.0000    Y=              0.0000    Z=             -1.1569  Tot=              1.1569
 Quadrupole moment (field-independent basis, Debye-Ang):
   XX=            -17.6298   YY=             -9.4606   ZZ=            -15.9615
   XY=              0.0000   XZ=              0.0000   YZ=              0.0000

 Normal termination of Gaussian 09 at Tue Sep 30 07:43:39 2014.
