 Gaussian 09, Revision D.01,
 Gaussian 09:  ES64L-G09RevD.01 24-Apr-2013

 -----------------
 #RHF 6-31G(d',p')
 -----------------

 -------------------
 H2S.r1.65theta127.0
 -------------------
 Symbolic Z-matrix:
 Charge =  0 Multiplicity = 1

                         Standard orientation:
 ---------------------------------------------------------------------
 Center     Atomic      Atomic             Coordinates (Angstroms)
 Number     Number       Type             X           Y           Z
 ---------------------------------------------------------------------
      1         16           0        0.000000    0.000000    0.081803
      2          1           0        0.000000    1.476642   -0.654423
      3          1           0        0.000000   -1.476642   -0.654423
 ---------------------------------------------------------------------

 SCF Done:  E(RHF) =  -398.579570979     A.U. after   10 cycles

 The electronic state is 1-A1.
 Alpha  occ. eigenvalues --  -91.98695  -8.98901  -6.67110  -6.67022  -6.66795
 Alpha  occ. eigenvalues --   -0.91906  -0.54784  -0.42471  -0.38193
 Alpha virt. eigenvalues --    0.04686   0.14694   0.48647   0.51949   0.52836
 Alpha virt. eigenvalues --    0.53420   0.89743   0.94538   0.96388   1.00853
 Alpha virt. eigenvalues --    1.02178   1.13067   1.13439   1.55744   1.58798

 Mulliken charges:
               1
     1  S   -0.153565
     2  H    0.076782
     3  H    0.076782
 Sum of Mulliken charges =   0.00000

 Dipole moment (field-independent basis, Debye):
    X=              0.0000    Y=              0.0000    Z=             -1.2352  Tot=              1.2352
 Quadrupole moment (field-independent basis, Debye-Ang):
   XX=            -17.4480   YY=            -10.5446   ZZ=            -15.2746
   XY=              0.0000   XZ=              0.0000   YZ=              0.0000

 Normal termination of Gaussian 09 at Tue Sep 30 07:42:25 2014.
