 Gaussian 09, Revision D.01,
 Gaussian 09:  ES64L-G09RevD.01 24-Apr-2013

 -----------------
 #RHF 6-31G(d',p')
 -----------------

 -------------------
 H2S.r0.70theta107.0
 -------------------
 Symbolic Z-matrix:
 Charge =  0 Multiplicity = 1

                         Standard orientation:
 ---------------------------------------------------------------------
 Center     Atomic      Atomic             Coordinates (Angstroms)
 Number     Number       Type             X           Y           Z
 ---------------------------------------------------------------------
      1         16           0        0.000000    0.000000    0.046264
      2          1           0        0.000000    0.562700   -0.370112
      3          1           0        0.000000   -0.562700   -0.370112
 ---------------------------------------------------------------------

 SCF Done:  E(RHF) =  -397.062985790     A.U. after   10 cycles

 The electronic state is 1-A1.
 Alpha  occ. eigenvalues --  -91.86829  -9.00318  -6.70185  -6.67509  -6.64767
 Alpha  occ. eigenvalues --   -1.22275  -0.81901  -0.49850  -0.40505
 Alpha virt. eigenvalues --    0.22245   0.23558   0.49366   0.50129   0.51328
 Alpha virt. eigenvalues --    0.54355   0.87084   0.90433   0.90452   0.96942
 Alpha virt. eigenvalues --    1.02109   1.95411   1.96644   2.12718   2.18058

 Mulliken charges:
               1
     1  S    0.507157
     2  H   -0.253578
     3  H   -0.253578
 Sum of Mulliken charges =   0.00000

 Dipole moment (field-independent basis, Debye):
    X=              0.0000    Y=              0.0000    Z=             -1.4013  Tot=              1.4013
 Quadrupole moment (field-independent basis, Debye-Ang):
   XX=            -14.8598   YY=            -11.6592   ZZ=            -13.3807
   XY=              0.0000   XZ=              0.0000   YZ=              0.0000

 Normal termination of Gaussian 09 at Tue Sep 30 07:22:32 2014.
