 Gaussian 09, Revision D.01,
 Gaussian 09:  ES64L-G09RevD.01 24-Apr-2013

 -----------------
 #RHF 6-31G(d',p')
 -----------------

 ------------------
 H2S.r1.75theta88.0
 ------------------
 Symbolic Z-matrix:
 Charge =  0 Multiplicity = 1

                         Standard orientation:
 ---------------------------------------------------------------------
 Center     Atomic      Atomic             Coordinates (Angstroms)
 Number     Number       Type             X           Y           Z
 ---------------------------------------------------------------------
      1         16           0        0.000000    0.000000    0.139872
      2          1           0        0.000000    1.215652   -1.118973
      3          1           0        0.000000   -1.215652   -1.118973
 ---------------------------------------------------------------------

 SCF Done:  E(RHF) =  -398.573195533     A.U. after   10 cycles

 The electronic state is 1-A1.
 Alpha  occ. eigenvalues --  -92.00324  -9.00309  -6.68474  -6.68402  -6.68139
 Alpha  occ. eigenvalues --   -0.91271  -0.48477  -0.46688  -0.38720
 Alpha virt. eigenvalues --    0.07061   0.08601   0.48782   0.52301   0.52968
 Alpha virt. eigenvalues --    0.58761   0.91834   0.94133   0.96773   1.00021
 Alpha virt. eigenvalues --    1.00227   1.08143   1.12918   1.55022   1.55840

 Mulliken charges:
               1
     1  S   -0.122770
     2  H    0.061385
     3  H    0.061385
 Sum of Mulliken charges =   0.00000

 Dipole moment (field-independent basis, Debye):
    X=              0.0000    Y=              0.0000    Z=             -1.1724  Tot=              1.1724
 Quadrupole moment (field-independent basis, Debye-Ang):
   XX=            -17.5715   YY=            -12.8172   ZZ=            -13.4340
   XY=              0.0000   XZ=              0.0000   YZ=              0.0000

 Normal termination of Gaussian 09 at Tue Sep 30 07:44:03 2014.
