 Gaussian 09, Revision D.01,
 Gaussian 09:  ES64L-G09RevD.01 24-Apr-2013

 -----------------
 #RHF 6-31G(d',p')
 -----------------

 -------------------
 H2S.r1.50theta154.0
 -------------------
 Symbolic Z-matrix:
 Charge =  0 Multiplicity = 1

                         Standard orientation:
 ---------------------------------------------------------------------
 Center     Atomic      Atomic             Coordinates (Angstroms)
 Number     Number       Type             X           Y           Z
 ---------------------------------------------------------------------
      1         16           0        0.000000    0.000000    0.037492
      2          1           0        0.000000    1.461555   -0.299935
      3          1           0        0.000000   -1.461555   -0.299935
 ---------------------------------------------------------------------

 SCF Done:  E(RHF) =  -398.563761079     A.U. after   10 cycles

 The electronic state is 1-A1.
 Alpha  occ. eigenvalues --  -91.95851  -8.96548  -6.64901  -6.64756  -6.64618
 Alpha  occ. eigenvalues --   -0.93572  -0.60460  -0.38805  -0.37382
 Alpha virt. eigenvalues --    0.01858   0.24551   0.45005   0.53292   0.54127
 Alpha virt. eigenvalues --    0.54393   0.83826   0.91359   0.98520   1.04304
 Alpha virt. eigenvalues --    1.04444   1.06798   1.26406   1.56188   1.59217

 Mulliken charges:
               1
     1  S   -0.306229
     2  H    0.153114
     3  H    0.153114
 Sum of Mulliken charges =   0.00000

 Dipole moment (field-independent basis, Debye):
    X=              0.0000    Y=              0.0000    Z=             -1.3616  Tot=              1.3616
 Quadrupole moment (field-independent basis, Debye-Ang):
   XX=            -17.3165   YY=             -8.8305   ZZ=            -16.3049
   XY=              0.0000   XZ=              0.0000   YZ=              0.0000

 Normal termination of Gaussian 09 at Tue Sep 30 07:39:36 2014.
