 Gaussian 09, Revision D.01,
 Gaussian 09:  ES64L-G09RevD.01 24-Apr-2013

 -----------------
 #RHF 6-31G(d',p')
 -----------------

 ------------------
 H2S.r1.35theta91.0
 ------------------
 Symbolic Z-matrix:
 Charge =  0 Multiplicity = 1

                         Standard orientation:
 ---------------------------------------------------------------------
 Center     Atomic      Atomic             Coordinates (Angstroms)
 Number     Number       Type             X           Y           Z
 ---------------------------------------------------------------------
      1         16           0        0.000000    0.000000    0.105136
      2          1           0        0.000000    0.962888   -0.841091
      3          1           0        0.000000   -0.962888   -0.841091
 ---------------------------------------------------------------------

 SCF Done:  E(RHF) =  -398.675355080     A.U. after   10 cycles

 The electronic state is 1-A1.
 Alpha  occ. eigenvalues --  -91.95850  -8.96884  -6.65160  -6.65055  -6.64820
 Alpha  occ. eigenvalues --   -0.98053  -0.58473  -0.50091  -0.38407
 Alpha virt. eigenvalues --    0.16559   0.20851   0.48301   0.48666   0.51144
 Alpha virt. eigenvalues --    0.53525   0.86632   0.89446   0.94026   0.95466
 Alpha virt. eigenvalues --    0.99333   1.27906   1.41747   1.66151   1.68277

 Mulliken charges:
               1
     1  S   -0.058383
     2  H    0.029191
     3  H    0.029191
 Sum of Mulliken charges =   0.00000

 Dipole moment (field-independent basis, Debye):
    X=              0.0000    Y=              0.0000    Z=             -1.3076  Tot=              1.3076
 Quadrupole moment (field-independent basis, Debye-Ang):
   XX=            -16.7019   YY=            -12.4158   ZZ=            -13.6661
   XY=              0.0000   XZ=              0.0000   YZ=              0.0000

 Normal termination of Gaussian 09 at Tue Sep 30 07:35:44 2014.
