 Gaussian 09, Revision D.01,
 Gaussian 09:  ES64L-G09RevD.01 24-Apr-2013

 -----------------
 #RHF 6-31G(d',p')
 -----------------

 -------------------
 H2S.r1.70theta135.0
 -------------------
 Symbolic Z-matrix:
 Charge =  0 Multiplicity = 1

                         Standard orientation:
 ---------------------------------------------------------------------
 Center     Atomic      Atomic             Coordinates (Angstroms)
 Number     Number       Type             X           Y           Z
 ---------------------------------------------------------------------
      1         16           0        0.000000    0.000000    0.072285
      2          1           0        0.000000    1.570595   -0.578277
      3          1           0        0.000000   -1.570595   -0.578277
 ---------------------------------------------------------------------

 SCF Done:  E(RHF) =  -398.550301072     A.U. after   10 cycles

 The electronic state is 1-A1.
 Alpha  occ. eigenvalues --  -91.98891  -8.99054  -6.67251  -6.67164  -6.66929
 Alpha  occ. eigenvalues --   -0.91213  -0.53943  -0.41040  -0.38133
 Alpha virt. eigenvalues --    0.01750   0.14574   0.48418   0.53085   0.53418
 Alpha virt. eigenvalues --    0.54083   0.89119   0.95476   0.97163   1.02197
 Alpha virt. eigenvalues --    1.02927   1.09295   1.11476   1.55478   1.57027

 Mulliken charges:
               1
     1  S   -0.179553
     2  H    0.089777
     3  H    0.089777
 Sum of Mulliken charges =   0.00000

 Dipole moment (field-independent basis, Debye):
    X=              0.0000    Y=              0.0000    Z=             -1.1752  Tot=              1.1752
 Quadrupole moment (field-independent basis, Debye-Ang):
   XX=            -17.5727   YY=            -10.0737   ZZ=            -15.5960
   XY=              0.0000   XZ=              0.0000   YZ=              0.0000

 Normal termination of Gaussian 09 at Tue Sep 30 07:43:33 2014.
