 Gaussian 09, Revision D.01,
 Gaussian 09:  ES64L-G09RevD.01 24-Apr-2013

 -----------------
 #RHF 6-31G(d',p')
 -----------------

 ------------------
 H2S.r0.85theta71.0
 ------------------
 Symbolic Z-matrix:
 Charge =  0 Multiplicity = 1

                         Standard orientation:
 ---------------------------------------------------------------------
 Center     Atomic      Atomic             Coordinates (Angstroms)
 Number     Number       Type             X           Y           Z
 ---------------------------------------------------------------------
      1         16           0        0.000000    0.000000    0.076889
      2          1           0        0.000000    0.493598   -0.615110
      3          1           0        0.000000   -0.493598   -0.615110
 ---------------------------------------------------------------------

 SCF Done:  E(RHF) =  -397.987451275     A.U. after   10 cycles

 The electronic state is 1-A1.
 Alpha  occ. eigenvalues --  -91.87217  -8.95012  -6.63890  -6.62904  -6.61518
 Alpha  occ. eigenvalues --   -1.21664  -0.65311  -0.56546  -0.39636
 Alpha virt. eigenvalues --    0.22801   0.26256   0.41672   0.48602   0.51684
 Alpha virt. eigenvalues --    0.52302   0.86670   0.87380   0.90839   0.95868
 Alpha virt. eigenvalues --    1.06692   1.78624   1.81290   1.95427   2.01825

 Mulliken charges:
               1
     1  S    0.158392
     2  H   -0.079196
     3  H   -0.079196
 Sum of Mulliken charges =   0.00000

 Dipole moment (field-independent basis, Debye):
    X=              0.0000    Y=              0.0000    Z=             -1.1530  Tot=              1.1530
 Quadrupole moment (field-independent basis, Debye-Ang):
   XX=            -15.4080   YY=            -12.4906   ZZ=            -12.5561
   XY=              0.0000   XZ=              0.0000   YZ=              0.0000

 Normal termination of Gaussian 09 at Tue Sep 30 07:25:12 2014.
