 Gaussian 09, Revision D.01,
 Gaussian 09:  ES64L-G09RevD.01 24-Apr-2013

 -----------------
 #RHF 6-31G(d',p')
 -----------------

 ------------------
 H2S.r0.70theta70.0
 ------------------
 Symbolic Z-matrix:
 Charge =  0 Multiplicity = 1

                         Standard orientation:
 ---------------------------------------------------------------------
 Center     Atomic      Atomic             Coordinates (Angstroms)
 Number     Number       Type             X           Y           Z
 ---------------------------------------------------------------------
      1         16           0        0.000000    0.000000    0.063712
      2          1           0        0.000000    0.401504   -0.509695
      3          1           0        0.000000   -0.401504   -0.509695
 ---------------------------------------------------------------------

 SCF Done:  E(RHF) =  -397.014981733     A.U. after   10 cycles

 The electronic state is 1-A1.
 Alpha  occ. eigenvalues --  -91.87158  -9.00537  -6.70154  -6.67744  -6.64804
 Alpha  occ. eigenvalues --   -1.29588  -0.66815  -0.57234  -0.40627
 Alpha virt. eigenvalues --    0.21879   0.23424   0.47555   0.51116   0.51267
 Alpha virt. eigenvalues --    0.55667   0.87766   0.88514   0.91519   0.96082
 Alpha virt. eigenvalues --    1.02930   1.96867   1.97827   2.13604   2.15085

 Mulliken charges:
               1
     1  S    0.383486
     2  H   -0.191743
     3  H   -0.191743
 Sum of Mulliken charges =   0.00000

 Dipole moment (field-independent basis, Debye):
    X=              0.0000    Y=              0.0000    Z=             -1.0630  Tot=              1.0630
 Quadrupole moment (field-independent basis, Debye-Ang):
   XX=            -14.9761   YY=            -12.3549   ZZ=            -12.4460
   XY=              0.0000   XZ=              0.0000   YZ=              0.0000

 Normal termination of Gaussian 09 at Tue Sep 30 07:22:07 2014.
