 Gaussian 09, Revision D.01,
 Gaussian 09:  ES64L-G09RevD.01 24-Apr-2013

 -----------------
 #RHF 6-31G(d',p')
 -----------------

 -------------------
 H2S.r1.25theta143.0
 -------------------
 Symbolic Z-matrix:
 Charge =  0 Multiplicity = 1

                         Standard orientation:
 ---------------------------------------------------------------------
 Center     Atomic      Atomic             Coordinates (Angstroms)
 Number     Number       Type             X           Y           Z
 ---------------------------------------------------------------------
      1         16           0        0.000000    0.000000    0.044070
      2          1           0        0.000000    1.185405   -0.352561
      3          1           0        0.000000   -1.185405   -0.352561
 ---------------------------------------------------------------------

 SCF Done:  E(RHF) =  -398.604466631     A.U. after   10 cycles

 The electronic state is 1-A1.
 Alpha  occ. eigenvalues --  -91.93541  -8.95412  -6.63909  -6.63597  -6.63473
 Alpha  occ. eigenvalues --   -1.00170  -0.69079  -0.41505  -0.38164
 Alpha virt. eigenvalues --    0.11904   0.29182   0.41127   0.44992   0.53627
 Alpha virt. eigenvalues --    0.53776   0.84329   0.86376   0.99256   1.01829
 Alpha virt. eigenvalues --    1.02259   1.25917   1.42442   1.64699   1.80460

 Mulliken charges:
               1
     1  S   -0.190242
     2  H    0.095121
     3  H    0.095121
 Sum of Mulliken charges =   0.00000

 Dipole moment (field-independent basis, Debye):
    X=              0.0000    Y=              0.0000    Z=             -1.5958  Tot=              1.5958
 Quadrupole moment (field-independent basis, Debye-Ang):
   XX=            -16.5409   YY=            -10.1987   ZZ=            -15.5269
   XY=              0.0000   XZ=              0.0000   YZ=              0.0000

 Normal termination of Gaussian 09 at Tue Sep 30 07:34:15 2014.
