 Gaussian 09, Revision D.01,
 Gaussian 09:  ES64L-G09RevD.01 24-Apr-2013

 -----------------
 #RHF 6-31G(d',p')
 -----------------

 -------------------
 H2S.r1.00theta102.0
 -------------------
 Symbolic Z-matrix:
 Charge =  0 Multiplicity = 1

                         Standard orientation:
 ---------------------------------------------------------------------
 Center     Atomic      Atomic             Coordinates (Angstroms)
 Number     Number       Type             X           Y           Z
 ---------------------------------------------------------------------
      1         16           0        0.000000    0.000000    0.069924
      2          1           0        0.000000    0.777146   -0.559396
      3          1           0        0.000000   -0.777146   -0.559396
 ---------------------------------------------------------------------

 SCF Done:  E(RHF) =  -398.452586672     A.U. after    9 cycles

 The electronic state is 1-A1.
 Alpha  occ. eigenvalues --  -91.89501  -8.94113  -6.62652  -6.62225  -6.61577
 Alpha  occ. eigenvalues --   -1.10179  -0.72482  -0.49829  -0.38910
 Alpha virt. eigenvalues --    0.23290   0.30256   0.37455   0.45677   0.52357
 Alpha virt. eigenvalues --    0.53003   0.85435   0.89216   0.89972   0.95872
 Alpha virt. eigenvalues --    1.04706   1.58506   1.72800   1.84879   1.90904

 Mulliken charges:
               1
     1  S    0.030930
     2  H   -0.015465
     3  H   -0.015465
 Sum of Mulliken charges =   0.00000

 Dipole moment (field-independent basis, Debye):
    X=              0.0000    Y=              0.0000    Z=             -1.4746  Tot=              1.4746
 Quadrupole moment (field-independent basis, Debye-Ang):
   XX=            -15.7472   YY=            -11.7368   ZZ=            -13.7018
   XY=              0.0000   XZ=              0.0000   YZ=              0.0000

 Normal termination of Gaussian 09 at Tue Sep 30 07:28:37 2014.
