 Gaussian 09, Revision D.01,
 Gaussian 09:  ES64L-G09RevD.01 24-Apr-2013

 -----------------
 #RHF 6-31G(d',p')
 -----------------

 ------------------
 H2S.r1.25theta95.0
 ------------------
 Symbolic Z-matrix:
 Charge =  0 Multiplicity = 1

                         Standard orientation:
 ---------------------------------------------------------------------
 Center     Atomic      Atomic             Coordinates (Angstroms)
 Number     Number       Type             X           Y           Z
 ---------------------------------------------------------------------
      1         16           0        0.000000    0.000000    0.093832
      2          1           0        0.000000    0.921597   -0.750656
      3          1           0        0.000000   -0.921597   -0.750656
 ---------------------------------------------------------------------

 SCF Done:  E(RHF) =  -398.667997362     A.U. after    9 cycles

 The electronic state is 1-A1.
 Alpha  occ. eigenvalues --  -91.94186  -8.95849  -6.64170  -6.64035  -6.63761
 Alpha  occ. eigenvalues --   -1.00862  -0.62333  -0.50037  -0.38424
 Alpha virt. eigenvalues --    0.19116   0.23967   0.45070   0.47228   0.51758
 Alpha virt. eigenvalues --    0.53525   0.85580   0.89427   0.92274   0.95241
 Alpha virt. eigenvalues --    1.01468   1.35254   1.52677   1.68129   1.74018

 Mulliken charges:
               1
     1  S   -0.048676
     2  H    0.024338
     3  H    0.024338
 Sum of Mulliken charges =   0.00000

 Dipole moment (field-independent basis, Debye):
    X=              0.0000    Y=              0.0000    Z=             -1.3670  Tot=              1.3670
 Quadrupole moment (field-independent basis, Debye-Ang):
   XX=            -16.4408   YY=            -12.1455   ZZ=            -13.7607
   XY=              0.0000   XZ=              0.0000   YZ=              0.0000

 Normal termination of Gaussian 09 at Tue Sep 30 07:33:42 2014.
