 Gaussian 09, Revision D.01,
 Gaussian 09:  ES64L-G09RevD.01 24-Apr-2013

 -----------------
 #RHF 6-31G(d',p')
 -----------------

 ------------------
 H2S.r1.35theta74.0
 ------------------
 Symbolic Z-matrix:
 Charge =  0 Multiplicity = 1

                         Standard orientation:
 ---------------------------------------------------------------------
 Center     Atomic      Atomic             Coordinates (Angstroms)
 Number     Number       Type             X           Y           Z
 ---------------------------------------------------------------------
      1         16           0        0.000000    0.000000    0.119795
      2          1           0        0.000000    0.812450   -0.958363
      3          1           0        0.000000   -0.812450   -0.958363
 ---------------------------------------------------------------------

 SCF Done:  E(RHF) =  -398.663107285     A.U. after   10 cycles

 The electronic state is 1-A1.
 Alpha  occ. eigenvalues --  -91.95949  -8.96989  -6.65215  -6.65183  -6.64894
 Alpha  occ. eigenvalues --   -0.98737  -0.54345  -0.53107  -0.38517
 Alpha virt. eigenvalues --    0.15112   0.20904   0.47368   0.49513   0.50194
 Alpha virt. eigenvalues --    0.53476   0.87042   0.88318   0.92748   0.96742
 Alpha virt. eigenvalues --    0.99600   1.30903   1.34475   1.66203   1.68042

 Mulliken charges:
               1
     1  S   -0.043146
     2  H    0.021573
     3  H    0.021573
 Sum of Mulliken charges =   0.00000

 Dipole moment (field-independent basis, Debye):
    X=              0.0000    Y=              0.0000    Z=             -1.2330  Tot=              1.2330
 Quadrupole moment (field-independent basis, Debye-Ang):
   XX=            -16.7098   YY=            -13.2610   ZZ=            -12.9372
   XY=              0.0000   XZ=              0.0000   YZ=              0.0000

 Normal termination of Gaussian 09 at Tue Sep 30 07:35:33 2014.
