 Gaussian 09, Revision D.01,
 Gaussian 09:  ES64L-G09RevD.01 24-Apr-2013

 -----------------
 #RHF 6-31G(d',p')
 -----------------

 -------------------
 H2S.r0.65theta158.0
 -------------------
 Symbolic Z-matrix:
 Charge =  0 Multiplicity = 1

                         Standard orientation:
 ---------------------------------------------------------------------
 Center     Atomic      Atomic             Coordinates (Angstroms)
 Number     Number       Type             X           Y           Z
 ---------------------------------------------------------------------
      1         16           0        0.000000    0.000000    0.013781
      2          1           0        0.000000    0.638058   -0.110245
      3          1           0        0.000000   -0.638058   -0.110245
 ---------------------------------------------------------------------

 SCF Done:  E(RHF) =  -396.475187145     A.U. after   10 cycles

 The electronic state is 1-A1.
 Alpha  occ. eigenvalues --  -91.89584  -9.05910  -6.79842  -6.69710  -6.69331
 Alpha  occ. eigenvalues --   -1.22011  -0.89927  -0.42722  -0.41657
 Alpha virt. eigenvalues --    0.17322   0.24671   0.48849   0.50206   0.50330
 Alpha virt. eigenvalues --    0.64763   0.79395   0.84733   0.93994   1.00131
 Alpha virt. eigenvalues --    1.00144   1.94442   1.97113   1.98954   2.37009

 Mulliken charges:
               1
     1  S    0.649853
     2  H   -0.324926
     3  H   -0.324926
 Sum of Mulliken charges =   0.00000

 Dipole moment (field-independent basis, Debye):
    X=              0.0000    Y=              0.0000    Z=             -1.0277  Tot=              1.0277
 Quadrupole moment (field-independent basis, Debye-Ang):
   XX=            -14.4714   YY=            -11.6357   ZZ=            -14.2378
   XY=              0.0000   XZ=              0.0000   YZ=              0.0000

 Normal termination of Gaussian 09 at Tue Sep 30 07:22:05 2014.
