 Gaussian 09, Revision D.01,
 Gaussian 09:  ES64L-G09RevD.01 24-Apr-2013

 -----------------
 #RHF 6-31G(d',p')
 -----------------

 ------------------
 H2S.r0.65theta98.0
 ------------------
 Symbolic Z-matrix:
 Charge =  0 Multiplicity = 1

                         Standard orientation:
 ---------------------------------------------------------------------
 Center     Atomic      Atomic             Coordinates (Angstroms)
 Number     Number       Type             X           Y           Z
 ---------------------------------------------------------------------
      1         16           0        0.000000    0.000000    0.047382
      2          1           0        0.000000    0.490561   -0.379056
      3          1           0        0.000000   -0.490561   -0.379056
 ---------------------------------------------------------------------

 SCF Done:  E(RHF) =  -396.537364675     A.U. after   10 cycles

 The electronic state is 1-A1.
 Alpha  occ. eigenvalues --  -91.88254  -9.04217  -6.73794  -6.71737  -6.67335
 Alpha  occ. eigenvalues --   -1.24390  -0.79227  -0.51732  -0.40882
 Alpha virt. eigenvalues --    0.21175   0.23048   0.48978   0.50894   0.51745
 Alpha virt. eigenvalues --    0.61519   0.86208   0.88631   0.92130   0.95787
 Alpha virt. eigenvalues --    1.01992   2.00868   2.02747   2.14387   2.30043

 Mulliken charges:
               1
     1  S    0.590360
     2  H   -0.295180
     3  H   -0.295180
 Sum of Mulliken charges =   0.00000

 Dipole moment (field-independent basis, Debye):
    X=              0.0000    Y=              0.0000    Z=             -1.2456  Tot=              1.2456
 Quadrupole moment (field-independent basis, Debye-Ang):
   XX=            -14.7271   YY=            -11.7653   ZZ=            -13.1187
   XY=              0.0000   XZ=              0.0000   YZ=              0.0000

 Normal termination of Gaussian 09 at Tue Sep 30 07:21:24 2014.
