 Gaussian 09, Revision D.01,
 Gaussian 09:  ES64L-G09RevD.01 24-Apr-2013

 -----------------
 #RHF 6-31G(d',p')
 -----------------

 -------------------
 H2S.r0.85theta159.0
 -------------------
 Symbolic Z-matrix:
 Charge =  0 Multiplicity = 1

                         Standard orientation:
 ---------------------------------------------------------------------
 Center     Atomic      Atomic             Coordinates (Angstroms)
 Number     Number       Type             X           Y           Z
 ---------------------------------------------------------------------
      1         16           0        0.000000    0.000000    0.017211
      2          1           0        0.000000    0.835767   -0.137689
      3          1           0        0.000000   -0.835767   -0.137689
 ---------------------------------------------------------------------

 SCF Done:  E(RHF) =  -397.941798005     A.U. after   10 cycles

 The electronic state is 1-A1.
 Alpha  occ. eigenvalues --  -91.87896  -8.96280  -6.66299  -6.63169  -6.63047
 Alpha  occ. eigenvalues --   -1.15545  -0.86262  -0.41242  -0.40174
 Alpha virt. eigenvalues --    0.17802   0.28891   0.39179   0.51681   0.51866
 Alpha virt. eigenvalues --    0.54497   0.80115   0.83112   0.95488   1.01752
 Alpha virt. eigenvalues --    1.01776   1.64749   1.75985   1.81479   2.10330

 Mulliken charges:
               1
     1  S    0.131614
     2  H   -0.065807
     3  H   -0.065807
 Sum of Mulliken charges =   0.00000

 Dipole moment (field-independent basis, Debye):
    X=              0.0000    Y=              0.0000    Z=             -1.1312  Tot=              1.1312
 Quadrupole moment (field-independent basis, Debye-Ang):
   XX=            -15.1619   YY=            -11.1475   ZZ=            -14.9020
   XY=              0.0000   XZ=              0.0000   YZ=              0.0000

 Normal termination of Gaussian 09 at Tue Sep 30 07:26:11 2014.
