 Gaussian 09, Revision D.01,
 Gaussian 09:  ES64L-G09RevD.01 24-Apr-2013

 -----------------
 #RHF 6-31G(d',p')
 -----------------

 -------------------
 H2S.r1.55theta151.0
 -------------------
 Symbolic Z-matrix:
 Charge =  0 Multiplicity = 1

                         Standard orientation:
 ---------------------------------------------------------------------
 Center     Atomic      Atomic             Coordinates (Angstroms)
 Number     Number       Type             X           Y           Z
 ---------------------------------------------------------------------
      1         16           0        0.000000    0.000000    0.043121
      2          1           0        0.000000    1.500629   -0.344968
      3          1           0        0.000000   -1.500629   -0.344968
 ---------------------------------------------------------------------

 SCF Done:  E(RHF) =  -398.559166279     A.U. after   10 cycles

 The electronic state is 1-A1.
 Alpha  occ. eigenvalues --  -91.96581  -8.97119  -6.65425  -6.65297  -6.65132
 Alpha  occ. eigenvalues --   -0.92786  -0.58791  -0.39145  -0.37510
 Alpha virt. eigenvalues --    0.01357   0.22167   0.45712   0.53942   0.53998
 Alpha virt. eigenvalues --    0.54177   0.84724   0.92855   0.98236   1.03975
 Alpha virt. eigenvalues --    1.04175   1.06703   1.22172   1.56232   1.59011

 Mulliken charges:
               1
     1  S   -0.275322
     2  H    0.137661
     3  H    0.137661
 Sum of Mulliken charges =   0.00000

 Dipole moment (field-independent basis, Debye):
    X=              0.0000    Y=              0.0000    Z=             -1.3360  Tot=              1.3360
 Quadrupole moment (field-independent basis, Debye-Ang):
   XX=            -17.3986   YY=             -9.0404   ZZ=            -16.1851
   XY=              0.0000   XZ=              0.0000   YZ=              0.0000

 Normal termination of Gaussian 09 at Tue Sep 30 07:40:36 2014.
