 Gaussian 09, Revision D.01,
 Gaussian 09:  ES64L-G09RevD.01 24-Apr-2013

 -----------------
 #RHF 6-31G(d',p')
 -----------------

 -------------------
 H2S.r0.95theta111.0
 -------------------
 Symbolic Z-matrix:
 Charge =  0 Multiplicity = 1

                         Standard orientation:
 ---------------------------------------------------------------------
 Center     Atomic      Atomic             Coordinates (Angstroms)
 Number     Number       Type             X           Y           Z
 ---------------------------------------------------------------------
      1         16           0        0.000000    0.000000    0.059787
      2          1           0        0.000000    0.782920   -0.478299
      3          1           0        0.000000   -0.782920   -0.478299
 ---------------------------------------------------------------------

 SCF Done:  E(RHF) =  -398.342167348     A.U. after    9 cycles

 The electronic state is 1-A1.
 Alpha  occ. eigenvalues --  -91.88638  -8.94226  -6.62976  -6.62167  -6.61494
 Alpha  occ. eigenvalues --   -1.12026  -0.76449  -0.48284  -0.39142
 Alpha virt. eigenvalues --    0.24463   0.28033   0.37851   0.45376   0.52287
 Alpha virt. eigenvalues --    0.52757   0.87929   0.88462   0.91156   0.97310
 Alpha virt. eigenvalues --    1.02105   1.64174   1.72224   1.87043   1.97527

 Mulliken charges:
               1
     1  S    0.073781
     2  H   -0.036891
     3  H   -0.036891
 Sum of Mulliken charges =   0.00000

 Dipole moment (field-independent basis, Debye):
    X=              0.0000    Y=              0.0000    Z=             -1.5667  Tot=              1.5667
 Quadrupole moment (field-independent basis, Debye-Ang):
   XX=            -15.5921   YY=            -11.5314   ZZ=            -13.8970
   XY=              0.0000   XZ=              0.0000   YZ=              0.0000

 Normal termination of Gaussian 09 at Tue Sep 30 07:27:41 2014.
