 Gaussian 09, Revision D.01,
 Gaussian 09:  ES64L-G09RevD.01 24-Apr-2013

 -----------------
 #RHF 6-31G(d',p')
 -----------------

 -------------------
 H2S.r1.00theta132.0
 -------------------
 Symbolic Z-matrix:
 Charge =  0 Multiplicity = 1

                         Standard orientation:
 ---------------------------------------------------------------------
 Center     Atomic      Atomic             Coordinates (Angstroms)
 Number     Number       Type             X           Y           Z
 ---------------------------------------------------------------------
      1         16           0        0.000000    0.000000    0.045193
      2          1           0        0.000000    0.913545   -0.361544
      3          1           0        0.000000   -0.913545   -0.361544
 ---------------------------------------------------------------------

 SCF Done:  E(RHF) =  -398.416923740     A.U. after   10 cycles

 The electronic state is 1-A1.
 Alpha  occ. eigenvalues --  -91.89707  -8.94480  -6.63359  -6.62328  -6.62034
 Alpha  occ. eigenvalues --   -1.09492  -0.78210  -0.44292  -0.39102
 Alpha virt. eigenvalues --    0.21920   0.27554   0.37523   0.44550   0.52786
 Alpha virt. eigenvalues --    0.52794   0.85423   0.86954   0.96714   0.99759
 Alpha virt. eigenvalues --    1.00167   1.51501   1.60439   1.83254   1.95043

 Mulliken charges:
               1
     1  S   -0.017675
     2  H    0.008838
     3  H    0.008838
 Sum of Mulliken charges =   0.00000

 Dipole moment (field-independent basis, Debye):
    X=              0.0000    Y=              0.0000    Z=             -1.6778  Tot=              1.6778
 Quadrupole moment (field-independent basis, Debye-Ang):
   XX=            -15.7216   YY=            -11.0878   ZZ=            -14.6194
   XY=              0.0000   XZ=              0.0000   YZ=              0.0000

 Normal termination of Gaussian 09 at Tue Sep 30 07:28:57 2014.
