 Gaussian 09, Revision D.01,
 Gaussian 09:  ES64L-G09RevD.01 24-Apr-2013

 -----------------
 #RHF 6-31G(d',p')
 -----------------

 ------------------
 H2S.r1.30theta87.0
 ------------------
 Symbolic Z-matrix:
 Charge =  0 Multiplicity = 1

                         Standard orientation:
 ---------------------------------------------------------------------
 Center     Atomic      Atomic             Coordinates (Angstroms)
 Number     Number       Type             X           Y           Z
 ---------------------------------------------------------------------
      1         16           0        0.000000    0.000000    0.104776
      2          1           0        0.000000    0.894861   -0.838210
      3          1           0        0.000000   -0.894861   -0.838210
 ---------------------------------------------------------------------

 SCF Done:  E(RHF) =  -398.673235950     A.U. after   10 cycles

 The electronic state is 1-A1.
 Alpha  occ. eigenvalues --  -91.95098  -8.96412  -6.64691  -6.64600  -6.64331
 Alpha  occ. eigenvalues --   -0.99587  -0.58978  -0.51148  -0.38445
 Alpha virt. eigenvalues --    0.17209   0.22847   0.47115   0.48184   0.51193
 Alpha virt. eigenvalues --    0.53519   0.85044   0.88748   0.94086   0.94350
 Alpha virt. eigenvalues --    1.01145   1.31806   1.44369   1.70293   1.74875

 Mulliken charges:
               1
     1  S   -0.044303
     2  H    0.022152
     3  H    0.022152
 Sum of Mulliken charges =   0.00000

 Dipole moment (field-independent basis, Debye):
    X=              0.0000    Y=              0.0000    Z=             -1.2923  Tot=              1.2923
 Quadrupole moment (field-independent basis, Debye-Ang):
   XX=            -16.5727   YY=            -12.5510   ZZ=            -13.4812
   XY=              0.0000   XZ=              0.0000   YZ=              0.0000

 Normal termination of Gaussian 09 at Tue Sep 30 07:34:39 2014.
