 Gaussian 09, Revision D.01,
 Gaussian 09:  ES64L-G09RevD.01 24-Apr-2013

 -----------------
 #RHF 6-31G(d',p')
 -----------------

 -------------------
 H2S.r0.95theta140.0
 -------------------
 Symbolic Z-matrix:
 Charge =  0 Multiplicity = 1

                         Standard orientation:
 ---------------------------------------------------------------------
 Center     Atomic      Atomic             Coordinates (Angstroms)
 Number     Number       Type             X           Y           Z
 ---------------------------------------------------------------------
      1         16           0        0.000000    0.000000    0.036102
      2          1           0        0.000000    0.892708   -0.288817
      3          1           0        0.000000   -0.892708   -0.288817
 ---------------------------------------------------------------------

 SCF Done:  E(RHF) =  -398.297167235     A.U. after   10 cycles

 The electronic state is 1-A1.
 Alpha  occ. eigenvalues --  -91.88997  -8.94769  -6.63912  -6.62402  -6.62139
 Alpha  occ. eigenvalues --   -1.11513  -0.81123  -0.43157  -0.39414
 Alpha virt. eigenvalues --    0.20521   0.28555   0.37611   0.45571   0.52464
 Alpha virt. eigenvalues --    0.52645   0.84495   0.84518   0.97988   1.00675
 Alpha virt. eigenvalues --    1.00954   1.52472   1.65292   1.82300   2.05228

 Mulliken charges:
               1
     1  S    0.022560
     2  H   -0.011280
     3  H   -0.011280
 Sum of Mulliken charges =   0.00000

 Dipole moment (field-independent basis, Debye):
    X=              0.0000    Y=              0.0000    Z=             -1.6296  Tot=              1.6296
 Quadrupole moment (field-independent basis, Debye-Ang):
   XX=            -15.5499   YY=            -11.0528   ZZ=            -14.7313
   XY=              0.0000   XZ=              0.0000   YZ=              0.0000

 Normal termination of Gaussian 09 at Tue Sep 30 07:28:01 2014.
