 Gaussian 09, Revision D.01,
 Gaussian 09:  ES64L-G09RevD.01 24-Apr-2013

 -----------------
 #RHF 6-31G(d',p')
 -----------------

 -------------------
 H2S.r0.95theta142.0
 -------------------
 Symbolic Z-matrix:
 Charge =  0 Multiplicity = 1

                         Standard orientation:
 ---------------------------------------------------------------------
 Center     Atomic      Atomic             Coordinates (Angstroms)
 Number     Number       Type             X           Y           Z
 ---------------------------------------------------------------------
      1         16           0        0.000000    0.000000    0.034366
      2          1           0        0.000000    0.898243   -0.274924
      3          1           0        0.000000   -0.898243   -0.274924
 ---------------------------------------------------------------------

 SCF Done:  E(RHF) =  -398.293150659     A.U. after   10 cycles

 The electronic state is 1-A1.
 Alpha  occ. eigenvalues --  -91.89024  -8.94812  -6.63977  -6.62431  -6.62191
 Alpha  occ. eigenvalues --   -1.11496  -0.81318  -0.42848  -0.39434
 Alpha virt. eigenvalues --    0.20042   0.28908   0.37615   0.45763   0.52441
 Alpha virt. eigenvalues --    0.52650   0.83895   0.84291   0.98214   1.00900
 Alpha virt. eigenvalues --    1.01148   1.51917   1.65435   1.81225   2.06913

 Mulliken charges:
               1
     1  S    0.016229
     2  H   -0.008115
     3  H   -0.008115
 Sum of Mulliken charges =   0.00000

 Dipole moment (field-independent basis, Debye):
    X=              0.0000    Y=              0.0000    Z=             -1.6077  Tot=              1.6077
 Quadrupole moment (field-independent basis, Debye-Ang):
   XX=            -15.5467   YY=            -11.0249   ZZ=            -14.7873
   XY=              0.0000   XZ=              0.0000   YZ=              0.0000

 Normal termination of Gaussian 09 at Tue Sep 30 07:28:02 2014.
