 Gaussian 09, Revision D.01,
 Gaussian 09:  ES64L-G09RevD.01 24-Apr-2013

 -----------------
 #RHF 6-31G(d',p')
 -----------------

 -------------------
 H2S.r0.65theta115.0
 -------------------
 Symbolic Z-matrix:
 Charge =  0 Multiplicity = 1

                         Standard orientation:
 ---------------------------------------------------------------------
 Center     Atomic      Atomic             Coordinates (Angstroms)
 Number     Number       Type             X           Y           Z
 ---------------------------------------------------------------------
      1         16           0        0.000000    0.000000    0.038805
      2          1           0        0.000000    0.548204   -0.310440
      3          1           0        0.000000   -0.548204   -0.310440
 ---------------------------------------------------------------------

 SCF Done:  E(RHF) =  -396.535589783     A.U. after   10 cycles

 The electronic state is 1-A1.
 Alpha  occ. eigenvalues --  -91.88485  -9.04506  -6.75654  -6.70660  -6.67722
 Alpha  occ. eigenvalues --   -1.22898  -0.84235  -0.48629  -0.41045
 Alpha virt. eigenvalues --    0.20756   0.23625   0.49736   0.50761   0.52352
 Alpha virt. eigenvalues --    0.56380   0.87663   0.89566   0.91038   0.97693
 Alpha virt. eigenvalues --    0.99413   1.98353   2.05486   2.18954   2.21909

 Mulliken charges:
               1
     1  S    0.647503
     2  H   -0.323752
     3  H   -0.323752
 Sum of Mulliken charges =   0.00000

 Dipole moment (field-independent basis, Debye):
    X=              0.0000    Y=              0.0000    Z=             -1.4099  Tot=              1.4099
 Quadrupole moment (field-independent basis, Debye-Ang):
   XX=            -14.6657   YY=            -11.6408   ZZ=            -13.4710
   XY=              0.0000   XZ=              0.0000   YZ=              0.0000

 Normal termination of Gaussian 09 at Tue Sep 30 07:21:36 2014.
