 Gaussian 09, Revision D.01,
 Gaussian 09:  ES64L-G09RevD.01 24-Apr-2013

 -----------------
 #RHF 6-31G(d',p')
 -----------------

 -------------------
 H2S.r0.60theta135.0
 -------------------
 Symbolic Z-matrix:
 Charge =  0 Multiplicity = 1

                         Standard orientation:
 ---------------------------------------------------------------------
 Center     Atomic      Atomic             Coordinates (Angstroms)
 Number     Number       Type             X           Y           Z
 ---------------------------------------------------------------------
      1         16           0        0.000000    0.000000    0.025512
      2          1           0        0.000000    0.554328   -0.204098
      3          1           0        0.000000   -0.554328   -0.204098
 ---------------------------------------------------------------------

 SCF Done:  E(RHF) =  -395.837099330     A.U. after   10 cycles

 The electronic state is 1-A1.
 Alpha  occ. eigenvalues --  -91.92255  -9.11126  -6.85506  -6.74735  -6.72769
 Alpha  occ. eigenvalues --   -1.22828  -0.87318  -0.45826  -0.41916
 Alpha virt. eigenvalues --    0.18721   0.23954   0.49676   0.49895   0.56013
 Alpha virt. eigenvalues --    0.57963   0.83254   0.87364   0.92902   0.98684
 Alpha virt. eigenvalues --    0.98816   1.99531   2.09737   2.12033   2.33862

 Mulliken charges:
               1
     1  S    0.805798
     2  H   -0.402899
     3  H   -0.402899
 Sum of Mulliken charges =   0.00000

 Dipole moment (field-independent basis, Debye):
    X=              0.0000    Y=              0.0000    Z=             -1.3714  Tot=              1.3714
 Quadrupole moment (field-independent basis, Debye-Ang):
   XX=            -14.4089   YY=            -11.6896   ZZ=            -13.7314
   XY=              0.0000   XZ=              0.0000   YZ=              0.0000

 Normal termination of Gaussian 09 at Tue Sep 30 07:20:48 2014.
