 Gaussian 09, Revision D.01,
 Gaussian 09:  ES64L-G09RevD.01 24-Apr-2013

 -----------------
 #RHF 6-31G(d',p')
 -----------------

 -------------------
 H2S.r0.75theta143.0
 -------------------
 Symbolic Z-matrix:
 Charge =  0 Multiplicity = 1

                         Standard orientation:
 ---------------------------------------------------------------------
 Center     Atomic      Atomic             Coordinates (Angstroms)
 Number     Number       Type             X           Y           Z
 ---------------------------------------------------------------------
      1         16           0        0.000000    0.000000    0.026442
      2          1           0        0.000000    0.711243   -0.211536
      3          1           0        0.000000   -0.711243   -0.211536
 ---------------------------------------------------------------------

 SCF Done:  E(RHF) =  -397.421811694     A.U. after   10 cycles

 The electronic state is 1-A1.
 Alpha  occ. eigenvalues --  -91.87069  -8.98706  -6.69649  -6.64798  -6.64196
 Alpha  occ. eigenvalues --   -1.19463  -0.87946  -0.43642  -0.40623
 Alpha virt. eigenvalues --    0.19759   0.25838   0.43503   0.51258   0.51412
 Alpha virt. eigenvalues --    0.52346   0.83888   0.85061   0.96444   1.00351
 Alpha virt. eigenvalues --    1.00421   1.77280   1.86554   1.96946   2.23656

 Mulliken charges:
               1
     1  S    0.417137
     2  H   -0.208569
     3  H   -0.208569
 Sum of Mulliken charges =   0.00000

 Dipole moment (field-independent basis, Debye):
    X=              0.0000    Y=              0.0000    Z=             -1.4930  Tot=              1.4930
 Quadrupole moment (field-independent basis, Debye-Ang):
   XX=            -14.8794   YY=            -11.4358   ZZ=            -14.2668
   XY=              0.0000   XZ=              0.0000   YZ=              0.0000

 Normal termination of Gaussian 09 at Tue Sep 30 07:23:57 2014.
