 Gaussian 09, Revision D.01,
 Gaussian 09:  ES64L-G09RevD.01 24-Apr-2013

 -----------------
 #RHF 6-31G(d',p')
 -----------------

 -------------------
 H2S.r1.30theta136.0
 -------------------
 Symbolic Z-matrix:
 Charge =  0 Multiplicity = 1

                         Standard orientation:
 ---------------------------------------------------------------------
 Center     Atomic      Atomic             Coordinates (Angstroms)
 Number     Number       Type             X           Y           Z
 ---------------------------------------------------------------------
      1         16           0        0.000000    0.000000    0.054110
      2          1           0        0.000000    1.205339   -0.432879
      3          1           0        0.000000   -1.205339   -0.432879
 ---------------------------------------------------------------------

 SCF Done:  E(RHF) =  -398.626604982     A.U. after   10 cycles

 The electronic state is 1-A1.
 Alpha  occ. eigenvalues --  -91.94394  -8.95870  -6.64289  -6.64056  -6.63908
 Alpha  occ. eigenvalues --   -0.98754  -0.66645  -0.42540  -0.38116
 Alpha virt. eigenvalues --    0.12256   0.25965   0.42283   0.45873   0.53589
 Alpha virt. eigenvalues --    0.53687   0.86168   0.87812   0.98155   1.00713
 Alpha virt. eigenvalues --    1.01533   1.26610   1.36660   1.65421   1.73096

 Mulliken charges:
               1
     1  S   -0.163342
     2  H    0.081671
     3  H    0.081671
 Sum of Mulliken charges =   0.00000

 Dipole moment (field-independent basis, Debye):
    X=              0.0000    Y=              0.0000    Z=             -1.5930  Tot=              1.5930
 Quadrupole moment (field-independent basis, Debye-Ang):
   XX=            -16.6613   YY=            -10.4113   ZZ=            -15.3427
   XY=              0.0000   XZ=              0.0000   YZ=              0.0000

 Normal termination of Gaussian 09 at Tue Sep 30 07:35:13 2014.
