 Gaussian 09, Revision D.01,
 Gaussian 09:  ES64L-G09RevD.01 24-Apr-2013

 -----------------
 #RHF 6-31G(d',p')
 -----------------

 -------------------
 H2S.r0.90theta139.0
 -------------------
 Symbolic Z-matrix:
 Charge =  0 Multiplicity = 1

                         Standard orientation:
 ---------------------------------------------------------------------
 Center     Atomic      Atomic             Coordinates (Angstroms)
 Number     Number       Type             X           Y           Z
 ---------------------------------------------------------------------
      1         16           0        0.000000    0.000000    0.035021
      2          1           0        0.000000    0.843005   -0.280166
      3          1           0        0.000000   -0.843005   -0.280166
 ---------------------------------------------------------------------

 SCF Done:  E(RHF) =  -398.160585559     A.U. after   10 cycles

 The electronic state is 1-A1.
 Alpha  occ. eigenvalues --  -91.88224  -8.95105  -6.64483  -6.62518  -6.62175
 Alpha  occ. eigenvalues --   -1.13636  -0.82951  -0.43520  -0.39666
 Alpha virt. eigenvalues --    0.21138   0.27712   0.38217   0.46549   0.52219
 Alpha virt. eigenvalues --    0.52377   0.84671   0.84965   0.97527   1.00492
 Alpha virt. eigenvalues --    1.00720   1.58000   1.69760   1.86664   2.08299

 Mulliken charges:
               1
     1  S    0.106085
     2  H   -0.053043
     3  H   -0.053043
 Sum of Mulliken charges =   0.00000

 Dipole moment (field-independent basis, Debye):
    X=              0.0000    Y=              0.0000    Z=             -1.6243  Tot=              1.6243
 Quadrupole moment (field-independent basis, Debye-Ang):
   XX=            -15.3870   YY=            -11.1709   ZZ=            -14.5745
   XY=              0.0000   XZ=              0.0000   YZ=              0.0000

 Normal termination of Gaussian 09 at Tue Sep 30 07:26:59 2014.
