 Gaussian 09, Revision D.01,
 Gaussian 09:  ES64L-G09RevD.01 24-Apr-2013

 -----------------
 #RHF 6-31G(d',p')
 -----------------

 -------------------
 H2S.r0.90theta119.0
 -------------------
 Symbolic Z-matrix:
 Charge =  0 Multiplicity = 1

                         Standard orientation:
 ---------------------------------------------------------------------
 Center     Atomic      Atomic             Coordinates (Angstroms)
 Number     Number       Type             X           Y           Z
 ---------------------------------------------------------------------
      1         16           0        0.000000    0.000000    0.050754
      2          1           0        0.000000    0.775466   -0.406031
      3          1           0        0.000000   -0.775466   -0.406031
 ---------------------------------------------------------------------

 SCF Done:  E(RHF) =  -398.194001240     A.U. after    9 cycles

 The electronic state is 1-A1.
 Alpha  occ. eigenvalues --  -91.87898  -8.94635  -6.63676  -6.62331  -6.61634
 Alpha  occ. eigenvalues --   -1.13973  -0.79921  -0.46955  -0.39435
 Alpha virt. eigenvalues --    0.25294   0.25698   0.38748   0.45669   0.52171
 Alpha virt. eigenvalues --    0.52457   0.87308   0.88970   0.93130   0.98453
 Alpha virt. eigenvalues --    1.00315   1.69643   1.70234   1.93961   1.99511

 Mulliken charges:
               1
     1  S    0.138895
     2  H   -0.069447
     3  H   -0.069447
 Sum of Mulliken charges =   0.00000

 Dipole moment (field-independent basis, Debye):
    X=              0.0000    Y=              0.0000    Z=             -1.6248  Tot=              1.6248
 Quadrupole moment (field-independent basis, Debye-Ang):
   XX=            -15.4303   YY=            -11.4198   ZZ=            -14.0334
   XY=              0.0000   XZ=              0.0000   YZ=              0.0000

 Normal termination of Gaussian 09 at Tue Sep 30 07:26:45 2014.
