 Gaussian 09, Revision D.01,
 Gaussian 09:  ES64L-G09RevD.01 24-Apr-2013

 -----------------
 #RHF 6-31G(d',p')
 -----------------

 -------------------
 H2S.r1.65theta123.0
 -------------------
 Symbolic Z-matrix:
 Charge =  0 Multiplicity = 1

                         Standard orientation:
 ---------------------------------------------------------------------
 Center     Atomic      Atomic             Coordinates (Angstroms)
 Number     Number       Type             X           Y           Z
 ---------------------------------------------------------------------
      1         16           0        0.000000    0.000000    0.087479
      2          1           0        0.000000    1.450048   -0.699833
      3          1           0        0.000000   -1.450048   -0.699833
 ---------------------------------------------------------------------

 SCF Done:  E(RHF) =  -398.585482960     A.U. after   10 cycles

 The electronic state is 1-A1.
 Alpha  occ. eigenvalues --  -91.98812  -8.99002  -6.67209  -6.67121  -6.66893
 Alpha  occ. eigenvalues --   -0.91960  -0.54494  -0.43046  -0.38248
 Alpha virt. eigenvalues --    0.05588   0.14037   0.49059   0.51587   0.52767
 Alpha virt. eigenvalues --    0.53381   0.90399   0.94044   0.96587   1.00204
 Alpha virt. eigenvalues --    1.01857   1.12684   1.14571   1.55369   1.59374

 Mulliken charges:
               1
     1  S   -0.143954
     2  H    0.071977
     3  H    0.071977
 Sum of Mulliken charges =   0.00000

 Dipole moment (field-independent basis, Debye):
    X=              0.0000    Y=              0.0000    Z=             -1.2313  Tot=              1.2313
 Quadrupole moment (field-independent basis, Debye-Ang):
   XX=            -17.4340   YY=            -10.7631   ZZ=            -15.1141
   XY=              0.0000   XZ=              0.0000   YZ=              0.0000

 Normal termination of Gaussian 09 at Tue Sep 30 07:42:22 2014.
