 Gaussian 09, Revision D.01,
 Gaussian 09:  ES64L-G09RevD.01 24-Apr-2013

 -----------------
 #RHF 6-31G(d',p')
 -----------------

 -------------------
 H2S.r1.75theta150.0
 -------------------
 Symbolic Z-matrix:
 Charge =  0 Multiplicity = 1

                         Standard orientation:
 ---------------------------------------------------------------------
 Center     Atomic      Atomic             Coordinates (Angstroms)
 Number     Number       Type             X           Y           Z
 ---------------------------------------------------------------------
      1         16           0        0.000000    0.000000    0.050326
      2          1           0        0.000000    1.690370   -0.402607
      3          1           0        0.000000   -1.690370   -0.402607
 ---------------------------------------------------------------------

 SCF Done:  E(RHF) =  -398.504651417     A.U. after   11 cycles

 The electronic state is 1-A1.
 Alpha  occ. eigenvalues --  -91.98656  -8.98825  -6.67023  -6.66924  -6.66690
 Alpha  occ. eigenvalues --   -0.90375  -0.53163  -0.38643  -0.37857
 Alpha virt. eigenvalues --   -0.02403   0.15168   0.47992   0.53574   0.53609
 Alpha virt. eigenvalues --    0.58865   0.87919   0.96841   0.97946   1.03760
 Alpha virt. eigenvalues --    1.03970   1.04268   1.10041   1.54949   1.55072

 Mulliken charges:
               1
     1  S   -0.245221
     2  H    0.122611
     3  H    0.122611
 Sum of Mulliken charges =   0.00000

 Dipole moment (field-independent basis, Debye):
    X=              0.0000    Y=              0.0000    Z=             -1.0620  Tot=              1.0620
 Quadrupole moment (field-independent basis, Debye-Ang):
   XX=            -17.7438   YY=             -9.1232   ZZ=            -16.1350
   XY=              0.0000   XZ=              0.0000   YZ=              0.0000

 Normal termination of Gaussian 09 at Tue Sep 30 07:44:48 2014.
