 Gaussian 09, Revision D.01,
 Gaussian 09:  ES64L-G09RevD.01 24-Apr-2013

 -----------------
 #RHF 6-31G(d',p')
 -----------------

 -------------------
 H2S.r1.70theta155.0
 -------------------
 Symbolic Z-matrix:
 Charge =  0 Multiplicity = 1

                         Standard orientation:
 ---------------------------------------------------------------------
 Center     Atomic      Atomic             Coordinates (Angstroms)
 Number     Number       Type             X           Y           Z
 ---------------------------------------------------------------------
      1         16           0        0.000000    0.000000    0.040883
      2          1           0        0.000000    1.659703   -0.327064
      3          1           0        0.000000   -1.659703   -0.327064
 ---------------------------------------------------------------------

 SCF Done:  E(RHF) =  -398.507970313     A.U. after   11 cycles

 The electronic state is 1-A1.
 Alpha  occ. eigenvalues --  -91.97813  -8.98081  -6.66318  -6.66202  -6.65995
 Alpha  occ. eigenvalues --   -0.90645  -0.54520  -0.38059  -0.37540
 Alpha virt. eigenvalues --   -0.02586   0.17473   0.47371   0.53845   0.54024
 Alpha virt. eigenvalues --    0.59250   0.86308   0.96787   0.97254   1.03251
 Alpha virt. eigenvalues --    1.04354   1.04476   1.12865   1.54610   1.55435

 Mulliken charges:
               1
     1  S   -0.287591
     2  H    0.143796
     3  H    0.143796
 Sum of Mulliken charges =   0.00000

 Dipole moment (field-independent basis, Debye):
    X=              0.0000    Y=              0.0000    Z=             -1.1064  Tot=              1.1064
 Quadrupole moment (field-independent basis, Debye-Ang):
   XX=            -17.7121   YY=             -8.6819   ZZ=            -16.3356
   XY=              0.0000   XZ=              0.0000   YZ=              0.0000

 Normal termination of Gaussian 09 at Tue Sep 30 07:43:46 2014.
