 Gaussian 09, Revision D.01,
 Gaussian 09:  ES64L-G09RevD.01 24-Apr-2013

 -----------------
 #RHF 6-31G(d',p')
 -----------------

 -------------------
 H2S.r1.55theta141.0
 -------------------
 Symbolic Z-matrix:
 Charge =  0 Multiplicity = 1

                         Standard orientation:
 ---------------------------------------------------------------------
 Center     Atomic      Atomic             Coordinates (Angstroms)
 Number     Number       Type             X           Y           Z
 ---------------------------------------------------------------------
      1         16           0        0.000000    0.000000    0.057489
      2          1           0        0.000000    1.461094   -0.459912
      3          1           0        0.000000   -1.461094   -0.459912
 ---------------------------------------------------------------------

 SCF Done:  E(RHF) =  -398.582223622     A.U. after   10 cycles

 The electronic state is 1-A1.
 Alpha  occ. eigenvalues --  -91.97162  -8.97638  -6.65909  -6.65798  -6.65610
 Alpha  occ. eigenvalues --   -0.93071  -0.58440  -0.40784  -0.37831
 Alpha virt. eigenvalues --    0.03779   0.20203   0.46129   0.51716   0.53631
 Alpha virt. eigenvalues --    0.53769   0.86329   0.93259   0.97078   1.02571
 Alpha virt. eigenvalues --    1.03125   1.11627   1.20486   1.58072   1.60535

 Mulliken charges:
               1
     1  S   -0.205942
     2  H    0.102971
     3  H    0.102971
 Sum of Mulliken charges =   0.00000

 Dipole moment (field-independent basis, Debye):
    X=              0.0000    Y=              0.0000    Z=             -1.3648  Tot=              1.3648
 Quadrupole moment (field-independent basis, Debye-Ang):
   XX=            -17.3194   YY=             -9.7843   ZZ=            -15.7755
   XY=              0.0000   XZ=              0.0000   YZ=              0.0000

 Normal termination of Gaussian 09 at Tue Sep 30 07:40:29 2014.
