 Gaussian 09, Revision D.01,
 Gaussian 09:  ES64L-G09RevD.01 24-Apr-2013

 -----------------
 #RHF 6-31G(d',p')
 -----------------

 ------------------
 H2S.r1.10theta95.0
 ------------------
 Symbolic Z-matrix:
 Charge =  0 Multiplicity = 1

                         Standard orientation:
 ---------------------------------------------------------------------
 Center     Atomic      Atomic             Coordinates (Angstroms)
 Number     Number       Type             X           Y           Z
 ---------------------------------------------------------------------
      1         16           0        0.000000    0.000000    0.082572
      2          1           0        0.000000    0.811005   -0.660577
      3          1           0        0.000000   -0.811005   -0.660577
 ---------------------------------------------------------------------

 SCF Done:  E(RHF) =  -398.587586794     A.U. after    9 cycles

 The electronic state is 1-A1.
 Alpha  occ. eigenvalues --  -91.91418  -8.94543  -6.62931  -6.62743  -6.62273
 Alpha  occ. eigenvalues --   -1.06281  -0.67208  -0.50781  -0.38634
 Alpha virt. eigenvalues --    0.21575   0.29268   0.39673   0.46351   0.52229
 Alpha virt. eigenvalues --    0.53309   0.83853   0.88423   0.91367   0.94700
 Alpha virt. eigenvalues --    1.05128   1.48503   1.64621   1.82462   1.82793

 Mulliken charges:
               1
     1  S   -0.014669
     2  H    0.007335
     3  H    0.007335
 Sum of Mulliken charges =   0.00000

 Dipole moment (field-independent basis, Debye):
    X=              0.0000    Y=              0.0000    Z=             -1.3937  Tot=              1.3937
 Quadrupole moment (field-independent basis, Debye-Ang):
   XX=            -16.0313   YY=            -12.0085   ZZ=            -13.6047
   XY=              0.0000   XZ=              0.0000   YZ=              0.0000

 Normal termination of Gaussian 09 at Tue Sep 30 07:30:35 2014.
