 Gaussian 09, Revision D.01,
 Gaussian 09:  ES64L-G09RevD.01 24-Apr-2013

 -----------------
 #RHF 6-31G(d',p')
 -----------------

 -------------------
 H2S.r0.80theta136.0
 -------------------
 Symbolic Z-matrix:
 Charge =  0 Multiplicity = 1

                         Standard orientation:
 ---------------------------------------------------------------------
 Center     Atomic      Atomic             Coordinates (Angstroms)
 Number     Number       Type             X           Y           Z
 ---------------------------------------------------------------------
      1         16           0        0.000000    0.000000    0.033298
      2          1           0        0.000000    0.741747   -0.266387
      3          1           0        0.000000   -0.741747   -0.266387
 ---------------------------------------------------------------------

 SCF Done:  E(RHF) =  -397.744810875     A.U. after   10 cycles

 The electronic state is 1-A1.
 Alpha  occ. eigenvalues --  -91.87022  -8.96755  -6.66850  -6.63547  -6.62906
 Alpha  occ. eigenvalues --   -1.17752  -0.85918  -0.44415  -0.40196
 Alpha virt. eigenvalues --    0.21312   0.26088   0.41470   0.48954   0.51691
 Alpha virt. eigenvalues --    0.51771   0.85474   0.85969   0.96312   1.00089
 Alpha virt. eigenvalues --    1.00152   1.71758   1.80641   1.96764   2.13092

 Mulliken charges:
               1
     1  S    0.313465
     2  H   -0.156733
     3  H   -0.156733
 Sum of Mulliken charges =   0.00000

 Dipole moment (field-independent basis, Debye):
    X=              0.0000    Y=              0.0000    Z=             -1.6007  Tot=              1.6007
 Quadrupole moment (field-independent basis, Debye-Ang):
   XX=            -15.0710   YY=            -11.3748   ZZ=            -14.2434
   XY=              0.0000   XZ=              0.0000   YZ=              0.0000

 Normal termination of Gaussian 09 at Tue Sep 30 07:24:54 2014.
