 Gaussian 09, Revision D.01,
 Gaussian 09:  ES64L-G09RevD.01 24-Apr-2013

 -----------------
 #RHF 6-31G(d',p')
 -----------------

 ------------------
 H2S.r1.55theta97.0
 ------------------
 Symbolic Z-matrix:
 Charge =  0 Multiplicity = 1

                         Standard orientation:
 ---------------------------------------------------------------------
 Center     Atomic      Atomic             Coordinates (Angstroms)
 Number     Number       Type             X           Y           Z
 ---------------------------------------------------------------------
      1         16           0        0.000000    0.000000    0.114118
      2          1           0        0.000000    1.160881   -0.912943
      3          1           0        0.000000   -1.160881   -0.912943
 ---------------------------------------------------------------------

 SCF Done:  E(RHF) =  -398.638285522     A.U. after   10 cycles

 The electronic state is 1-A1.
 Alpha  occ. eigenvalues --  -91.98354  -8.98674  -6.66900  -6.66803  -6.66585
 Alpha  occ. eigenvalues --   -0.93686  -0.54190  -0.47517  -0.38427
 Alpha virt. eigenvalues --    0.12678   0.13506   0.49890   0.50242   0.53357
 Alpha virt. eigenvalues --    0.53493   0.90820   0.92072   0.95314   0.96473
 Alpha virt. eigenvalues --    0.98619   1.16065   1.25909   1.55718   1.60817

 Mulliken charges:
               1
     1  S   -0.096761
     2  H    0.048380
     3  H    0.048380
 Sum of Mulliken charges =   0.00000

 Dipole moment (field-independent basis, Debye):
    X=              0.0000    Y=              0.0000    Z=             -1.2539  Tot=              1.2539
 Quadrupole moment (field-independent basis, Debye-Ang):
   XX=            -17.1798   YY=            -12.2162   ZZ=            -13.9631
   XY=              0.0000   XZ=              0.0000   YZ=              0.0000

 Normal termination of Gaussian 09 at Tue Sep 30 07:39:59 2014.
