 Gaussian 09, Revision D.01,
 Gaussian 09:  ES64L-G09RevD.01 24-Apr-2013

 -----------------
 #RHF 6-31G(d',p')
 -----------------

 -------------------
 H2S.r0.95theta153.0
 -------------------
 Symbolic Z-matrix:
 Charge =  0 Multiplicity = 1

                         Standard orientation:
 ---------------------------------------------------------------------
 Center     Atomic      Atomic             Coordinates (Angstroms)
 Number     Number       Type             X           Y           Z
 ---------------------------------------------------------------------
      1         16           0        0.000000    0.000000    0.024641
      2          1           0        0.000000    0.923751   -0.197132
      3          1           0        0.000000   -0.923751   -0.197132
 ---------------------------------------------------------------------

 SCF Done:  E(RHF) =  -398.271370119     A.U. after   10 cycles

 The electronic state is 1-A1.
 Alpha  occ. eigenvalues --  -91.89157  -8.95034  -6.64308  -6.62602  -6.62473
 Alpha  occ. eigenvalues --   -1.11416  -0.82142  -0.41335  -0.39530
 Alpha virt. eigenvalues --    0.17676   0.30984   0.37680   0.47803   0.52316
 Alpha virt. eigenvalues --    0.52572   0.80821   0.83331   0.97604   1.01945
 Alpha virt. eigenvalues --    1.02030   1.51609   1.66653   1.76134   2.03907

 Mulliken charges:
               1
     1  S   -0.028268
     2  H    0.014134
     3  H    0.014134
 Sum of Mulliken charges =   0.00000

 Dipole moment (field-independent basis, Debye):
    X=              0.0000    Y=              0.0000    Z=             -1.3849  Tot=              1.3849
 Quadrupole moment (field-independent basis, Debye-Ang):
   XX=            -15.5288   YY=            -10.8819   ZZ=            -15.0848
   XY=              0.0000   XZ=              0.0000   YZ=              0.0000

 Normal termination of Gaussian 09 at Tue Sep 30 07:28:10 2014.
