 Gaussian 09, Revision D.01,
 Gaussian 09:  ES64L-G09RevD.01 24-Apr-2013

 -----------------
 #RHF 6-31G(d',p')
 -----------------

 -------------------
 H2S.r0.95theta112.0
 -------------------
 Symbolic Z-matrix:
 Charge =  0 Multiplicity = 1

                         Standard orientation:
 ---------------------------------------------------------------------
 Center     Atomic      Atomic             Coordinates (Angstroms)
 Number     Number       Type             X           Y           Z
 ---------------------------------------------------------------------
      1         16           0        0.000000    0.000000    0.059026
      2          1           0        0.000000    0.787586   -0.472207
      3          1           0        0.000000   -0.787586   -0.472207
 ---------------------------------------------------------------------

 SCF Done:  E(RHF) =  -398.341283884     A.U. after    9 cycles

 The electronic state is 1-A1.
 Alpha  occ. eigenvalues --  -91.88646  -8.94239  -6.63005  -6.62167  -6.61510
 Alpha  occ. eigenvalues --   -1.11994  -0.76674  -0.48095  -0.39149
 Alpha virt. eigenvalues --    0.24576   0.27791   0.37832   0.45336   0.52294
 Alpha virt. eigenvalues --    0.52749   0.88162   0.88296   0.91397   0.97456
 Alpha virt. eigenvalues --    1.01779   1.64231   1.71401   1.87267   1.97971

 Mulliken charges:
               1
     1  S    0.072950
     2  H   -0.036475
     3  H   -0.036475
 Sum of Mulliken charges =   0.00000

 Dipole moment (field-independent basis, Debye):
    X=              0.0000    Y=              0.0000    Z=             -1.5762  Tot=              1.5762
 Quadrupole moment (field-independent basis, Debye-Ang):
   XX=            -15.5905   YY=            -11.5120   ZZ=            -13.9264
   XY=              0.0000   XZ=              0.0000   YZ=              0.0000

 Normal termination of Gaussian 09 at Tue Sep 30 07:27:42 2014.
