 Gaussian 09, Revision D.01,
 Gaussian 09:  ES64L-G09RevD.01 24-Apr-2013

 -----------------
 #RHF 6-31G(d',p')
 -----------------

 ------------------
 H2S.r0.75theta95.0
 ------------------
 Symbolic Z-matrix:
 Charge =  0 Multiplicity = 1

                         Standard orientation:
 ---------------------------------------------------------------------
 Center     Atomic      Atomic             Coordinates (Angstroms)
 Number     Number       Type             X           Y           Z
 ---------------------------------------------------------------------
      1         16           0        0.000000    0.000000    0.056299
      2          1           0        0.000000    0.552958   -0.450393
      3          1           0        0.000000   -0.552958   -0.450393
 ---------------------------------------------------------------------

 SCF Done:  E(RHF) =  -397.466746060     A.U. after   10 cycles

 The electronic state is 1-A1.
 Alpha  occ. eigenvalues --  -91.86274  -8.97542  -6.66393  -6.65599  -6.62891
 Alpha  occ. eigenvalues --   -1.21800  -0.77302  -0.51974  -0.40063
 Alpha virt. eigenvalues --    0.23225   0.23957   0.47884   0.48810   0.51790
 Alpha virt. eigenvalues --    0.54004   0.84823   0.88884   0.92121   0.95296
 Alpha virt. eigenvalues --    1.06016   1.87532   1.91496   2.06866   2.21131

 Mulliken charges:
               1
     1  S    0.366189
     2  H   -0.183095
     3  H   -0.183095
 Sum of Mulliken charges =   0.00000

 Dipole moment (field-independent basis, Debye):
    X=              0.0000    Y=              0.0000    Z=             -1.3129  Tot=              1.3129
 Quadrupole moment (field-independent basis, Debye-Ang):
   XX=            -15.0562   YY=            -11.8007   ZZ=            -13.1591
   XY=              0.0000   XZ=              0.0000   YZ=              0.0000

 Normal termination of Gaussian 09 at Tue Sep 30 07:23:25 2014.
