 Gaussian 09, Revision D.01,
 Gaussian 09:  ES64L-G09RevD.01 24-Apr-2013

 -----------------
 #RHF 6-31G(d',p')
 -----------------

 -------------------
 H2S.r0.65theta138.0
 -------------------
 Symbolic Z-matrix:
 Charge =  0 Multiplicity = 1

                         Standard orientation:
 ---------------------------------------------------------------------
 Center     Atomic      Atomic             Coordinates (Angstroms)
 Number     Number       Type             X           Y           Z
 ---------------------------------------------------------------------
      1         16           0        0.000000    0.000000    0.025882
      2          1           0        0.000000    0.606827   -0.207057
      3          1           0        0.000000   -0.606827   -0.207057
 ---------------------------------------------------------------------

 SCF Done:  E(RHF) =  -396.506927146     A.U. after   10 cycles

 The electronic state is 1-A1.
 Alpha  occ. eigenvalues --  -91.89056  -9.05228  -6.78135  -6.69873  -6.68557
 Alpha  occ. eigenvalues --   -1.22182  -0.88310  -0.44980  -0.41381
 Alpha virt. eigenvalues --    0.19084   0.24459   0.50348   0.50472   0.51019
 Alpha virt. eigenvalues --    0.55924   0.83702   0.86542   0.94380   0.99380
 Alpha virt. eigenvalues --    0.99450   1.93124   2.01349   2.07625   2.28536

 Mulliken charges:
               1
     1  S    0.674016
     2  H   -0.337008
     3  H   -0.337008
 Sum of Mulliken charges =   0.00000

 Dipole moment (field-independent basis, Debye):
    X=              0.0000    Y=              0.0000    Z=             -1.4394  Tot=              1.4394
 Quadrupole moment (field-independent basis, Debye-Ang):
   XX=            -14.5689   YY=            -11.6093   ZZ=            -13.9040
   XY=              0.0000   XZ=              0.0000   YZ=              0.0000

 Normal termination of Gaussian 09 at Tue Sep 30 07:21:51 2014.
