 Gaussian 09, Revision D.01,
 Gaussian 09:  ES64L-G09RevD.01 24-Apr-2013

 -----------------
 #RHF 6-31G(d',p')
 -----------------

 ------------------
 H2S.r1.55theta93.0
 ------------------
 Symbolic Z-matrix:
 Charge =  0 Multiplicity = 1

                         Standard orientation:
 ---------------------------------------------------------------------
 Center     Atomic      Atomic             Coordinates (Angstroms)
 Number     Number       Type             X           Y           Z
 ---------------------------------------------------------------------
      1         16           0        0.000000    0.000000    0.118550
      2          1           0        0.000000    1.124330   -0.948400
      3          1           0        0.000000   -1.124330   -0.948400
 ---------------------------------------------------------------------

 SCF Done:  E(RHF) =  -398.638816674     A.U. after   10 cycles

 The electronic state is 1-A1.
 Alpha  occ. eigenvalues --  -91.98410  -8.98726  -6.66948  -6.66854  -6.66633
 Alpha  occ. eigenvalues --   -0.93744  -0.53571  -0.48101  -0.38463
 Alpha virt. eigenvalues --    0.12186   0.14002   0.50041   0.50111   0.53334
 Alpha virt. eigenvalues --    0.54027   0.90456   0.91716   0.95301   0.96849
 Alpha virt. eigenvalues --    0.98207   1.16199   1.25493   1.57176   1.60405

 Mulliken charges:
               1
     1  S   -0.093240
     2  H    0.046620
     3  H    0.046620
 Sum of Mulliken charges =   0.00000

 Dipole moment (field-independent basis, Debye):
    X=              0.0000    Y=              0.0000    Z=             -1.2428  Tot=              1.2428
 Quadrupole moment (field-independent basis, Debye-Ang):
   XX=            -17.1775   YY=            -12.4442   ZZ=            -13.7789
   XY=              0.0000   XZ=              0.0000   YZ=              0.0000

 Normal termination of Gaussian 09 at Tue Sep 30 07:39:56 2014.
