 Gaussian 09, Revision D.01,
 Gaussian 09:  ES64L-G09RevD.01 24-Apr-2013

 -----------------
 #RHF 6-31G(d',p')
 -----------------

 ------------------
 H2S.r1.35theta82.0
 ------------------
 Symbolic Z-matrix:
 Charge =  0 Multiplicity = 1

                         Standard orientation:
 ---------------------------------------------------------------------
 Center     Atomic      Atomic             Coordinates (Angstroms)
 Number     Number       Type             X           Y           Z
 ---------------------------------------------------------------------
      1         16           0        0.000000    0.000000    0.113206
      2          1           0        0.000000    0.885680   -0.905651
      3          1           0        0.000000   -0.885680   -0.905651
 ---------------------------------------------------------------------

 SCF Done:  E(RHF) =  -398.671150363     A.U. after   10 cycles

 The electronic state is 1-A1.
 Alpha  occ. eigenvalues --  -91.95924  -8.96955  -6.65208  -6.65135  -6.64876
 Alpha  occ. eigenvalues --   -0.98349  -0.56415  -0.51653  -0.38470
 Alpha virt. eigenvalues --    0.15656   0.21222   0.48560   0.48926   0.50667
 Alpha virt. eigenvalues --    0.53494   0.85967   0.88646   0.94090   0.95423
 Alpha virt. eigenvalues --    0.99898   1.28941   1.37752   1.67576   1.74455

 Mulliken charges:
               1
     1  S   -0.047221
     2  H    0.023611
     3  H    0.023611
 Sum of Mulliken charges =   0.00000

 Dipole moment (field-independent basis, Debye):
    X=              0.0000    Y=              0.0000    Z=             -1.2555  Tot=              1.2555
 Quadrupole moment (field-independent basis, Debye-Ang):
   XX=            -16.7029   YY=            -12.8565   ZZ=            -13.2901
   XY=              0.0000   XZ=              0.0000   YZ=              0.0000

 Normal termination of Gaussian 09 at Tue Sep 30 07:35:38 2014.
