 Gaussian 09, Revision D.01,
 Gaussian 09:  ES64L-G09RevD.01 24-Apr-2013

 -----------------
 #RHF 6-31G(d',p')
 -----------------

 ------------------
 H2S.r1.15theta89.0
 ------------------
 Symbolic Z-matrix:
 Charge =  0 Multiplicity = 1

                         Standard orientation:
 ---------------------------------------------------------------------
 Center     Atomic      Atomic             Coordinates (Angstroms)
 Number     Number       Type             X           Y           Z
 ---------------------------------------------------------------------
      1         16           0        0.000000    0.000000    0.091138
      2          1           0        0.000000    0.806046   -0.729100
      3          1           0        0.000000   -0.806046   -0.729100
 ---------------------------------------------------------------------

 SCF Done:  E(RHF) =  -398.625201158     A.U. after    9 cycles

 The electronic state is 1-A1.
 Alpha  occ. eigenvalues --  -91.92410  -8.94952  -6.63278  -6.63176  -6.62754
 Alpha  occ. eigenvalues --   -1.04613  -0.63954  -0.51684  -0.38564
 Alpha virt. eigenvalues --    0.20244   0.28067   0.41556   0.47053   0.51942
 Alpha virt. eigenvalues --    0.53403   0.83090   0.87928   0.92659   0.93763
 Alpha virt. eigenvalues --    1.05123   1.43933   1.58335   1.78851   1.86117

 Mulliken charges:
               1
     1  S   -0.019738
     2  H    0.009869
     3  H    0.009869
 Sum of Mulliken charges =   0.00000

 Dipole moment (field-independent basis, Debye):
    X=              0.0000    Y=              0.0000    Z=             -1.3289  Tot=              1.3289
 Quadrupole moment (field-independent basis, Debye-Ang):
   XX=            -16.1717   YY=            -12.2768   ZZ=            -13.4466
   XY=              0.0000   XZ=              0.0000   YZ=              0.0000

 Normal termination of Gaussian 09 at Tue Sep 30 07:31:33 2014.
