 Gaussian 09, Revision D.01,
 Gaussian 09:  ES64L-G09RevD.01 24-Apr-2013

 -----------------
 #RHF 6-31G(d',p')
 -----------------

 -------------------
 H2S.r0.80theta104.0
 -------------------
 Symbolic Z-matrix:
 Charge =  0 Multiplicity = 1

                         Standard orientation:
 ---------------------------------------------------------------------
 Center     Atomic      Atomic             Coordinates (Angstroms)
 Number     Number       Type             X           Y           Z
 ---------------------------------------------------------------------
      1         16           0        0.000000    0.000000    0.054725
      2          1           0        0.000000    0.630409   -0.437804
      3          1           0        0.000000   -0.630409   -0.437804
 ---------------------------------------------------------------------

 SCF Done:  E(RHF) =  -397.781349085     A.U. after   10 cycles

 The electronic state is 1-A1.
 Alpha  occ. eigenvalues --  -91.86486  -8.95975  -6.65032  -6.63750  -6.62039
 Alpha  occ. eigenvalues --   -1.18933  -0.79242  -0.50080  -0.39810
 Alpha virt. eigenvalues --    0.23758   0.25342   0.44873   0.47498   0.52040
 Alpha virt. eigenvalues --    0.52060   0.86119   0.90117   0.90295   0.96502
 Alpha virt. eigenvalues --    1.04724   1.81237   1.87324   2.05020   2.05551

 Mulliken charges:
               1
     1  S    0.302193
     2  H   -0.151097
     3  H   -0.151097
 Sum of Mulliken charges =   0.00000

 Dipole moment (field-independent basis, Debye):
    X=              0.0000    Y=              0.0000    Z=             -1.4469  Tot=              1.4469
 Quadrupole moment (field-independent basis, Debye-Ang):
   XX=            -15.1751   YY=            -11.6675   ZZ=            -13.4590
   XY=              0.0000   XZ=              0.0000   YZ=              0.0000

 Normal termination of Gaussian 09 at Tue Sep 30 07:24:32 2014.
