 Gaussian 09, Revision D.01,
 Gaussian 09:  ES64L-G09RevD.01 24-Apr-2013

 -----------------
 #RHF 6-31G(d',p')
 -----------------

 -------------------
 H2S.r1.00theta126.0
 -------------------
 Symbolic Z-matrix:
 Charge =  0 Multiplicity = 1

                         Standard orientation:
 ---------------------------------------------------------------------
 Center     Atomic      Atomic             Coordinates (Angstroms)
 Number     Number       Type             X           Y           Z
 ---------------------------------------------------------------------
      1         16           0        0.000000    0.000000    0.050443
      2          1           0        0.000000    0.891007   -0.403547
      3          1           0        0.000000   -0.891007   -0.403547
 ---------------------------------------------------------------------

 SCF Done:  E(RHF) =  -398.427607315     A.U. after   10 cycles

 The electronic state is 1-A1.
 Alpha  occ. eigenvalues --  -91.89646  -8.94382  -6.63200  -6.62270  -6.61913
 Alpha  occ. eigenvalues --   -1.09562  -0.77381  -0.45352  -0.39053
 Alpha virt. eigenvalues --    0.23637   0.26502   0.37512   0.44608   0.52684
 Alpha virt. eigenvalues --    0.52842   0.86179   0.88508   0.95176   0.99269
 Alpha virt. eigenvalues --    0.99400   1.55378   1.60051   1.86858   1.90850

 Mulliken charges:
               1
     1  S   -0.004137
     2  H    0.002069
     3  H    0.002069
 Sum of Mulliken charges =   0.00000

 Dipole moment (field-independent basis, Debye):
    X=              0.0000    Y=              0.0000    Z=             -1.6709  Tot=              1.6709
 Quadrupole moment (field-independent basis, Debye-Ang):
   XX=            -15.7256   YY=            -11.2043   ZZ=            -14.4385
   XY=              0.0000   XZ=              0.0000   YZ=              0.0000

 Normal termination of Gaussian 09 at Tue Sep 30 07:28:53 2014.
