 Gaussian 09, Revision D.01,
 Gaussian 09:  ES64L-G09RevD.01 24-Apr-2013

 -----------------
 #RHF 6-31G(d',p')
 -----------------

 -------------------
 H2S.r1.50theta117.0
 -------------------
 Symbolic Z-matrix:
 Charge =  0 Multiplicity = 1

                         Standard orientation:
 ---------------------------------------------------------------------
 Center     Atomic      Atomic             Coordinates (Angstroms)
 Number     Number       Type             X           Y           Z
 ---------------------------------------------------------------------
      1         16           0        0.000000    0.000000    0.087083
      2          1           0        0.000000    1.278960   -0.696665
      3          1           0        0.000000   -1.278960   -0.696665
 ---------------------------------------------------------------------

 SCF Done:  E(RHF) =  -398.636598850     A.U. after   10 cycles

 The electronic state is 1-A1.
 Alpha  occ. eigenvalues --  -91.97413  -8.97911  -6.66169  -6.66061  -6.65862
 Alpha  occ. eigenvalues --   -0.94311  -0.58127  -0.44868  -0.38198
 Alpha virt. eigenvalues --    0.11149   0.16926   0.47937   0.48944   0.52391
 Alpha virt. eigenvalues --    0.53555   0.90593   0.93397   0.93678   0.97714
 Alpha virt. eigenvalues --    1.00274   1.19631   1.25566   1.56684   1.64300

 Mulliken charges:
               1
     1  S   -0.119129
     2  H    0.059564
     3  H    0.059564
 Sum of Mulliken charges =   0.00000

 Dipole moment (field-independent basis, Debye):
    X=              0.0000    Y=              0.0000    Z=             -1.3633  Tot=              1.3633
 Quadrupole moment (field-independent basis, Debye-Ang):
   XX=            -17.1025   YY=            -11.1498   ZZ=            -14.8067
   XY=              0.0000   XZ=              0.0000   YZ=              0.0000

 Normal termination of Gaussian 09 at Tue Sep 30 07:39:10 2014.
