 Gaussian 09, Revision D.01,
 Gaussian 09:  ES64L-G09RevD.01 24-Apr-2013

 -----------------
 #RHF 6-31G(d',p')
 -----------------

 -------------------
 H2S.r0.75theta102.0
 -------------------
 Symbolic Z-matrix:
 Charge =  0 Multiplicity = 1

                         Standard orientation:
 ---------------------------------------------------------------------
 Center     Atomic      Atomic             Coordinates (Angstroms)
 Number     Number       Type             X           Y           Z
 ---------------------------------------------------------------------
      1         16           0        0.000000    0.000000    0.052443
      2          1           0        0.000000    0.582859   -0.419547
      3          1           0        0.000000   -0.582859   -0.419547
 ---------------------------------------------------------------------

 SCF Done:  E(RHF) =  -397.468754370     A.U. after   10 cycles

 The electronic state is 1-A1.
 Alpha  occ. eigenvalues --  -91.86308  -8.97614  -6.66825  -6.65324  -6.62982
 Alpha  occ. eigenvalues --   -1.21058  -0.79681  -0.50620  -0.40100
 Alpha virt. eigenvalues --    0.23519   0.23843   0.47867   0.48662   0.51754
 Alpha virt. eigenvalues --    0.52879   0.85937   0.89876   0.90933   0.96290
 Alpha virt. eigenvalues --    1.04522   1.88317   1.91513   2.07961   2.14113

 Mulliken charges:
               1
     1  S    0.388713
     2  H   -0.194356
     3  H   -0.194356
 Sum of Mulliken charges =   0.00000

 Dipole moment (field-independent basis, Debye):
    X=              0.0000    Y=              0.0000    Z=             -1.3927  Tot=              1.3927
 Quadrupole moment (field-independent basis, Debye-Ang):
   XX=            -15.0328   YY=            -11.6995   ZZ=            -13.3352
   XY=              0.0000   XZ=              0.0000   YZ=              0.0000

 Normal termination of Gaussian 09 at Tue Sep 30 07:23:30 2014.
