 Gaussian 09, Revision D.01,
 Gaussian 09:  ES64L-G09RevD.01 24-Apr-2013

 -----------------
 #RHF 6-31G(d',p')
 -----------------

 -------------------
 H2S.r1.05theta141.0
 -------------------
 Symbolic Z-matrix:
 Charge =  0 Multiplicity = 1

                         Standard orientation:
 ---------------------------------------------------------------------
 Center     Atomic      Atomic             Coordinates (Angstroms)
 Number     Number       Type             X           Y           Z
 ---------------------------------------------------------------------
      1         16           0        0.000000    0.000000    0.038944
      2          1           0        0.000000    0.989774   -0.311553
      3          1           0        0.000000   -0.989774   -0.311553
 ---------------------------------------------------------------------

 SCF Done:  E(RHF) =  -398.475723562     A.U. after   10 cycles

 The electronic state is 1-A1.
 Alpha  occ. eigenvalues --  -91.90592  -8.94623  -6.63441  -6.62558  -6.62383
 Alpha  occ. eigenvalues --   -1.07377  -0.77120  -0.42594  -0.38936
 Alpha virt. eigenvalues --    0.18397   0.29866   0.37919   0.44125   0.52925
 Alpha virt. eigenvalues --    0.53116   0.84186   0.84596   0.98628   1.00990
 Alpha virt. eigenvalues --    1.01337   1.43155   1.57307   1.75095   1.97423

 Mulliken charges:
               1
     1  S   -0.091651
     2  H    0.045825
     3  H    0.045825
 Sum of Mulliken charges =   0.00000

 Dipole moment (field-independent basis, Debye):
    X=              0.0000    Y=              0.0000    Z=             -1.6353  Tot=              1.6353
 Quadrupole moment (field-independent basis, Debye-Ang):
   XX=            -15.8828   YY=            -10.7976   ZZ=            -15.0156
   XY=              0.0000   XZ=              0.0000   YZ=              0.0000

 Normal termination of Gaussian 09 at Tue Sep 30 07:30:04 2014.
