 Gaussian 09, Revision D.01,
 Gaussian 09:  ES64L-G09RevD.01 24-Apr-2013

 -----------------
 #RHF 6-31G(d',p')
 -----------------

 -------------------
 H2S.r0.70theta159.0
 -------------------
 Symbolic Z-matrix:
 Charge =  0 Multiplicity = 1

                         Standard orientation:
 ---------------------------------------------------------------------
 Center     Atomic      Atomic             Coordinates (Angstroms)
 Number     Number       Type             X           Y           Z
 ---------------------------------------------------------------------
      1         16           0        0.000000    0.000000    0.014174
      2          1           0        0.000000    0.688278   -0.113391
      3          1           0        0.000000   -0.688278   -0.113391
 ---------------------------------------------------------------------

 SCF Done:  E(RHF) =  -396.993601819     A.U. after   10 cycles

 The electronic state is 1-A1.
 Alpha  occ. eigenvalues --  -91.87957  -9.01882  -6.74317  -6.66782  -6.66518
 Alpha  occ. eigenvalues --   -1.20853  -0.89863  -0.42210  -0.41210
 Alpha virt. eigenvalues --    0.17592   0.25417   0.45519   0.50657   0.50794
 Alpha virt. eigenvalues --    0.62374   0.80064   0.84158   0.94398   1.00650
 Alpha virt. eigenvalues --    1.00661   1.86668   1.91613   1.94434   2.29419

 Mulliken charges:
               1
     1  S    0.506666
     2  H   -0.253333
     3  H   -0.253333
 Sum of Mulliken charges =   0.00000

 Dipole moment (field-independent basis, Debye):
    X=              0.0000    Y=              0.0000    Z=             -1.0382  Tot=              1.0382
 Quadrupole moment (field-independent basis, Debye-Ang):
   XX=            -14.6397   YY=            -11.5292   ZZ=            -14.4133
   XY=              0.0000   XZ=              0.0000   YZ=              0.0000

 Normal termination of Gaussian 09 at Tue Sep 30 07:23:07 2014.
