 Gaussian 09, Revision D.01,
 Gaussian 09:  ES64L-G09RevD.01 24-Apr-2013

 -----------------
 #RHF 6-31G(d',p')
 -----------------

 -------------------
 H2S.r0.60theta114.0
 -------------------
 Symbolic Z-matrix:
 Charge =  0 Multiplicity = 1

                         Standard orientation:
 ---------------------------------------------------------------------
 Center     Atomic      Atomic             Coordinates (Angstroms)
 Number     Number       Type             X           Y           Z
 ---------------------------------------------------------------------
      1         16           0        0.000000    0.000000    0.036309
      2          1           0        0.000000    0.503202   -0.290474
      3          1           0        0.000000   -0.503202   -0.290474
 ---------------------------------------------------------------------

 SCF Done:  E(RHF) =  -395.859460977     A.U. after   10 cycles

 The electronic state is 1-A1.
 Alpha  occ. eigenvalues --  -91.91691  -9.10507  -6.82588  -6.75939  -6.71976
 Alpha  occ. eigenvalues --   -1.23531  -0.83520  -0.49093  -0.41612
 Alpha virt. eigenvalues --    0.19913   0.23299   0.49096   0.50119   0.54520
 Alpha virt. eigenvalues --    0.62014   0.87257   0.89727   0.90051   0.97327
 Alpha virt. eigenvalues --    0.98206   2.02893   2.14529   2.21418   2.23927

 Mulliken charges:
               1
     1  S    0.771566
     2  H   -0.385783
     3  H   -0.385783
 Sum of Mulliken charges =   0.00000

 Dipole moment (field-independent basis, Debye):
    X=              0.0000    Y=              0.0000    Z=             -1.3142  Tot=              1.3142
 Quadrupole moment (field-independent basis, Debye-Ang):
   XX=            -14.4939   YY=            -11.6939   ZZ=            -13.3749
   XY=              0.0000   XZ=              0.0000   YZ=              0.0000

 Normal termination of Gaussian 09 at Tue Sep 30 07:20:34 2014.
