 Gaussian 09, Revision D.01,
 Gaussian 09:  ES64L-G09RevD.01 24-Apr-2013

 -----------------
 #RHF 6-31G(d',p')
 -----------------

 ------------------
 H2S.r0.95theta77.0
 ------------------
 Symbolic Z-matrix:
 Charge =  0 Multiplicity = 1

                         Standard orientation:
 ---------------------------------------------------------------------
 Center     Atomic      Atomic             Coordinates (Angstroms)
 Number     Number       Type             X           Y           Z
 ---------------------------------------------------------------------
      1         16           0        0.000000    0.000000    0.082609
      2          1           0        0.000000    0.591389   -0.660869
      3          1           0        0.000000   -0.591389   -0.660869
 ---------------------------------------------------------------------

 SCF Done:  E(RHF) =  -398.328998558     A.U. after   10 cycles

 The electronic state is 1-A1.
 Alpha  occ. eigenvalues --  -91.88697  -8.94138  -6.62637  -6.62314  -6.61336
 Alpha  occ. eigenvalues --   -1.14903  -0.65663  -0.54947  -0.39132
 Alpha virt. eigenvalues --    0.22041   0.30058   0.37971   0.47583   0.51981
 Alpha virt. eigenvalues --    0.52812   0.84563   0.86170   0.91540   0.94751
 Alpha virt. eigenvalues --    1.08194   1.64246   1.72372   1.92819   1.94077

 Mulliken charges:
               1
     1  S    0.066944
     2  H   -0.033472
     3  H   -0.033472
 Sum of Mulliken charges =   0.00000

 Dipole moment (field-independent basis, Debye):
    X=              0.0000    Y=              0.0000    Z=             -1.2140  Tot=              1.2140
 Quadrupole moment (field-independent basis, Debye-Ang):
   XX=            -15.6593   YY=            -12.4204   ZZ=            -12.8293
   XY=              0.0000   XZ=              0.0000   YZ=              0.0000

 Normal termination of Gaussian 09 at Tue Sep 30 07:27:18 2014.
