 Gaussian 09, Revision D.01,
 Gaussian 09:  ES64L-G09RevD.01 24-Apr-2013

 -----------------
 #RHF 6-31G(d',p')
 -----------------

 ------------------
 H2S.r1.35theta77.0
 ------------------
 Symbolic Z-matrix:
 Charge =  0 Multiplicity = 1

                         Standard orientation:
 ---------------------------------------------------------------------
 Center     Atomic      Atomic             Coordinates (Angstroms)
 Number     Number       Type             X           Y           Z
 ---------------------------------------------------------------------
      1         16           0        0.000000    0.000000    0.117391
      2          1           0        0.000000    0.840395   -0.939130
      3          1           0        0.000000   -0.840395   -0.939130
 ---------------------------------------------------------------------

 SCF Done:  E(RHF) =  -398.666595943     A.U. after   10 cycles

 The electronic state is 1-A1.
 Alpha  occ. eigenvalues --  -91.95945  -8.96981  -6.65217  -6.65169  -6.64892
 Alpha  occ. eigenvalues --   -0.98574  -0.55148  -0.52551  -0.38501
 Alpha virt. eigenvalues --    0.15283   0.21090   0.47911   0.49290   0.50371
 Alpha virt. eigenvalues --    0.53481   0.86469   0.88396   0.93268   0.96241
 Alpha virt. eigenvalues --    0.99799   1.30015   1.35648   1.67721   1.69450

 Mulliken charges:
               1
     1  S   -0.043752
     2  H    0.021876
     3  H    0.021876
 Sum of Mulliken charges =   0.00000

 Dipole moment (field-independent basis, Debye):
    X=              0.0000    Y=              0.0000    Z=             -1.2377  Tot=              1.2377
 Quadrupole moment (field-independent basis, Debye-Ang):
   XX=            -16.7065   YY=            -13.1075   ZZ=            -13.0724
   XY=              0.0000   XZ=              0.0000   YZ=              0.0000

 Normal termination of Gaussian 09 at Tue Sep 30 07:35:35 2014.
