 Gaussian 09, Revision D.01,
 Gaussian 09:  ES64L-G09RevD.01 24-Apr-2013

 -----------------
 #RHF 6-31G(d',p')
 -----------------

 -------------------
 H2S.r1.15theta112.0
 -------------------
 Symbolic Z-matrix:
 Charge =  0 Multiplicity = 1

                         Standard orientation:
 ---------------------------------------------------------------------
 Center     Atomic      Atomic             Coordinates (Angstroms)
 Number     Number       Type             X           Y           Z
 ---------------------------------------------------------------------
      1         16           0        0.000000    0.000000    0.071452
      2          1           0        0.000000    0.953393   -0.571619
      3          1           0        0.000000   -0.953393   -0.571619
 ---------------------------------------------------------------------

 SCF Done:  E(RHF) =  -398.618546292     A.U. after   10 cycles

 The electronic state is 1-A1.
 Alpha  occ. eigenvalues --  -91.92283  -8.94893  -6.63354  -6.63031  -6.62746
 Alpha  occ. eigenvalues --   -1.03876  -0.69235  -0.47406  -0.38519
 Alpha virt. eigenvalues --    0.23199   0.24004   0.40379   0.45377   0.52565
 Alpha virt. eigenvalues --    0.53397   0.88766   0.89099   0.92152   0.97519
 Alpha virt. eigenvalues --    0.99378   1.44882   1.56338   1.70427   1.83769

 Mulliken charges:
               1
     1  S   -0.062596
     2  H    0.031298
     3  H    0.031298
 Sum of Mulliken charges =   0.00000

 Dipole moment (field-independent basis, Debye):
    X=              0.0000    Y=              0.0000    Z=             -1.5525  Tot=              1.5525
 Quadrupole moment (field-independent basis, Debye-Ang):
   XX=            -16.1726   YY=            -11.4717   ZZ=            -14.2563
   XY=              0.0000   XZ=              0.0000   YZ=              0.0000

 Normal termination of Gaussian 09 at Tue Sep 30 07:31:49 2014.
