 Gaussian 09, Revision D.01,
 Gaussian 09:  ES64L-G09RevD.01 24-Apr-2013

 -----------------
 #RHF 6-31G(d',p')
 -----------------

 -------------------
 H2S.r1.25theta132.0
 -------------------
 Symbolic Z-matrix:
 Charge =  0 Multiplicity = 1

                         Standard orientation:
 ---------------------------------------------------------------------
 Center     Atomic      Atomic             Coordinates (Angstroms)
 Number     Number       Type             X           Y           Z
 ---------------------------------------------------------------------
      1         16           0        0.000000    0.000000    0.056491
      2          1           0        0.000000    1.141932   -0.451930
      3          1           0        0.000000   -1.141932   -0.451930
 ---------------------------------------------------------------------

 SCF Done:  E(RHF) =  -398.627993823     A.U. after   10 cycles

 The electronic state is 1-A1.
 Alpha  occ. eigenvalues --  -91.93762  -8.95563  -6.64012  -6.63729  -6.63569
 Alpha  occ. eigenvalues --   -1.00289  -0.68184  -0.43421  -0.38255
 Alpha virt. eigenvalues --    0.14998   0.25883   0.41496   0.45192   0.53393
 Alpha virt. eigenvalues --    0.53588   0.87103   0.87381   0.97381   0.99808
 Alpha virt. eigenvalues --    1.00779   1.32766   1.39501   1.68918   1.74715

 Mulliken charges:
               1
     1  S   -0.138660
     2  H    0.069330
     3  H    0.069330
 Sum of Mulliken charges =   0.00000

 Dipole moment (field-independent basis, Debye):
    X=              0.0000    Y=              0.0000    Z=             -1.6176  Tot=              1.6176
 Quadrupole moment (field-independent basis, Debye-Ang):
   XX=            -16.5011   YY=            -10.6691   ZZ=            -15.1175
   XY=              0.0000   XZ=              0.0000   YZ=              0.0000

 Normal termination of Gaussian 09 at Tue Sep 30 07:34:08 2014.
