 Gaussian 09, Revision D.01,
 Gaussian 09:  ES64L-G09RevD.01 24-Apr-2013

 -----------------
 #RHF 6-31G(d',p')
 -----------------

 -------------------
 H2S.r1.80theta119.0
 -------------------
 Symbolic Z-matrix:
 Charge =  0 Multiplicity = 1

                         Standard orientation:
 ---------------------------------------------------------------------
 Center     Atomic      Atomic             Coordinates (Angstroms)
 Number     Number       Type             X           Y           Z
 ---------------------------------------------------------------------
      1         16           0        0.000000    0.000000    0.101508
      2          1           0        0.000000    1.550932   -0.812061
      3          1           0        0.000000   -1.550932   -0.812061
 ---------------------------------------------------------------------

 SCF Done:  E(RHF) =  -398.540219641     A.U. after   10 cycles

 The electronic state is 1-A1.
 Alpha  occ. eigenvalues --  -92.00213  -9.00198  -6.68360  -6.68282  -6.68019
 Alpha  occ. eigenvalues --   -0.90547  -0.50588  -0.42523  -0.38524
 Alpha virt. eigenvalues --    0.02869   0.09574   0.49562   0.53061   0.53869
 Alpha virt. eigenvalues --    0.54258   0.93171   0.94576   0.99456   1.00691
 Alpha virt. eigenvalues --    1.02212   1.06635   1.08626   1.53807   1.55039

 Mulliken charges:
               1
     1  S   -0.148994
     2  H    0.074497
     3  H    0.074497
 Sum of Mulliken charges =   0.00000

 Dipole moment (field-independent basis, Debye):
    X=              0.0000    Y=              0.0000    Z=             -1.0866  Tot=              1.0866
 Quadrupole moment (field-independent basis, Debye-Ang):
   XX=            -17.6845   YY=            -10.9048   ZZ=            -14.9655
   XY=              0.0000   XZ=              0.0000   YZ=              0.0000

 Normal termination of Gaussian 09 at Tue Sep 30 07:45:28 2014.
