 Gaussian 09, Revision D.01,
 Gaussian 09:  ES64L-G09RevD.01 24-Apr-2013

 -----------------
 #RHF 6-31G(d',p')
 -----------------

 -------------------
 H2S.r1.60theta105.0
 -------------------
 Symbolic Z-matrix:
 Charge =  0 Multiplicity = 1

                         Standard orientation:
 ---------------------------------------------------------------------
 Center     Atomic      Atomic             Coordinates (Angstroms)
 Number     Number       Type             X           Y           Z
 ---------------------------------------------------------------------
      1         16           0        0.000000    0.000000    0.108224
      2          1           0        0.000000    1.269365   -0.865794
      3          1           0        0.000000   -1.269365   -0.865794
 ---------------------------------------------------------------------

 SCF Done:  E(RHF) =  -398.619828825     A.U. after   10 cycles

 The electronic state is 1-A1.
 Alpha  occ. eigenvalues --  -91.98740  -8.98966  -6.67182  -6.67087  -6.66866
 Alpha  occ. eigenvalues --   -0.92824  -0.54010  -0.45949  -0.38394
 Alpha virt. eigenvalues --    0.10691   0.12556   0.50121   0.50294   0.53323
 Alpha virt. eigenvalues --    0.53329   0.91827   0.92481   0.96429   0.96718
 Alpha virt. eigenvalues --    0.99946   1.13766   1.21710   1.54440   1.59914

 Mulliken charges:
               1
     1  S   -0.111244
     2  H    0.055622
     3  H    0.055622
 Sum of Mulliken charges =   0.00000

 Dipole moment (field-independent basis, Debye):
    X=              0.0000    Y=              0.0000    Z=             -1.2442  Tot=              1.2442
 Quadrupole moment (field-independent basis, Debye-Ang):
   XX=            -17.2941   YY=            -11.7692   ZZ=            -14.3284
   XY=              0.0000   XZ=              0.0000   YZ=              0.0000

 Normal termination of Gaussian 09 at Tue Sep 30 07:41:07 2014.
