 Gaussian 09, Revision D.01,
 Gaussian 09:  ES64L-G09RevD.01 24-Apr-2013

 -----------------
 #RHF 6-31G(d',p')
 -----------------

 ------------------
 H2S.r1.45theta99.0
 ------------------
 Symbolic Z-matrix:
 Charge =  0 Multiplicity = 1

                         Standard orientation:
 ---------------------------------------------------------------------
 Center     Atomic      Atomic             Coordinates (Angstroms)
 Number     Number       Type             X           Y           Z
 ---------------------------------------------------------------------
      1         16           0        0.000000    0.000000    0.104633
      2          1           0        0.000000    1.102589   -0.837066
      3          1           0        0.000000   -1.102589   -0.837066
 ---------------------------------------------------------------------

 SCF Done:  E(RHF) =  -398.662173259     A.U. after   10 cycles

 The electronic state is 1-A1.
 Alpha  occ. eigenvalues --  -91.97147  -8.97759  -6.66018  -6.65908  -6.65701
 Alpha  occ. eigenvalues --   -0.95520  -0.57154  -0.48031  -0.38354
 Alpha virt. eigenvalues --    0.15303   0.16450   0.48767   0.50090   0.51502
 Alpha virt. eigenvalues --    0.53495   0.90360   0.90759   0.94496   0.96277
 Alpha virt. eigenvalues --    0.97658   1.21355   1.34532   1.56517   1.64956

 Mulliken charges:
               1
     1  S   -0.084690
     2  H    0.042345
     3  H    0.042345
 Sum of Mulliken charges =   0.00000

 Dipole moment (field-independent basis, Debye):
    X=              0.0000    Y=              0.0000    Z=             -1.3144  Tot=              1.3144
 Quadrupole moment (field-independent basis, Debye-Ang):
   XX=            -16.9538   YY=            -12.0771   ZZ=            -14.0365
   XY=              0.0000   XZ=              0.0000   YZ=              0.0000

 Normal termination of Gaussian 09 at Tue Sep 30 07:37:55 2014.
