 Gaussian 09, Revision D.01,
 Gaussian 09:  ES64L-G09RevD.01 24-Apr-2013

 -----------------
 #RHF 6-31G(d',p')
 -----------------

 -------------------
 H2S.r1.65theta159.0
 -------------------
 Symbolic Z-matrix:
 Charge =  0 Multiplicity = 1

                         Standard orientation:
 ---------------------------------------------------------------------
 Center     Atomic      Atomic             Coordinates (Angstroms)
 Number     Number       Type             X           Y           Z
 ---------------------------------------------------------------------
      1         16           0        0.000000    0.000000    0.033410
      2          1           0        0.000000    1.622371   -0.267279
      3          1           0        0.000000   -1.622371   -0.267279
 ---------------------------------------------------------------------

 SCF Done:  E(RHF) =  -398.512516655     A.U. after   11 cycles

 The electronic state is 1-A1.
 Alpha  occ. eigenvalues --  -91.96929  -8.97306  -6.65591  -6.65458  -6.65284
 Alpha  occ. eigenvalues --   -0.90996  -0.55913  -0.37571  -0.37212
 Alpha virt. eigenvalues --   -0.02537   0.19764   0.46837   0.54127   0.54416
 Alpha virt. eigenvalues --    0.59324   0.84988   0.95500   0.97689   1.02087
 Alpha virt. eigenvalues --    1.04912   1.04983   1.16096   1.54250   1.55007

 Mulliken charges:
               1
     1  S   -0.336508
     2  H    0.168254
     3  H    0.168254
 Sum of Mulliken charges =   0.00000

 Dipole moment (field-independent basis, Debye):
    X=              0.0000    Y=              0.0000    Z=             -1.1411  Tot=              1.1411
 Quadrupole moment (field-independent basis, Debye-Ang):
   XX=            -17.6766   YY=             -8.2207   ZZ=            -16.5355
   XY=              0.0000   XZ=              0.0000   YZ=              0.0000

 Normal termination of Gaussian 09 at Tue Sep 30 07:42:47 2014.
