 Gaussian 09, Revision D.01,
 Gaussian 09:  ES64L-G09RevD.01 24-Apr-2013

 -----------------
 #RHF 6-31G(d',p')
 -----------------

 -------------------
 H2S.r0.75theta140.0
 -------------------
 Symbolic Z-matrix:
 Charge =  0 Multiplicity = 1

                         Standard orientation:
 ---------------------------------------------------------------------
 Center     Atomic      Atomic             Coordinates (Angstroms)
 Number     Number       Type             X           Y           Z
 ---------------------------------------------------------------------
      1         16           0        0.000000    0.000000    0.028502
      2          1           0        0.000000    0.704769   -0.228013
      3          1           0        0.000000   -0.704769   -0.228013
 ---------------------------------------------------------------------

 SCF Done:  E(RHF) =  -397.427176895     A.U. after   10 cycles

 The electronic state is 1-A1.
 Alpha  occ. eigenvalues --  -91.87001  -8.98608  -6.69454  -6.64784  -6.64086
 Alpha  occ. eigenvalues --   -1.19502  -0.87625  -0.44061  -0.40580
 Alpha virt. eigenvalues --    0.20162   0.25693   0.43714   0.51302   0.51421
 Alpha virt. eigenvalues --    0.51587   0.84672   0.85383   0.96226   1.00170
 Alpha virt. eigenvalues --    1.00234   1.77865   1.86783   1.98625   2.20630

 Mulliken charges:
               1
     1  S    0.421919
     2  H   -0.210959
     3  H   -0.210959
 Sum of Mulliken charges =   0.00000

 Dipole moment (field-independent basis, Debye):
    X=              0.0000    Y=              0.0000    Z=             -1.5310  Tot=              1.5310
 Quadrupole moment (field-independent basis, Debye-Ang):
   XX=            -14.8923   YY=            -11.4425   ZZ=            -14.2032
   XY=              0.0000   XZ=              0.0000   YZ=              0.0000

 Normal termination of Gaussian 09 at Tue Sep 30 07:23:55 2014.
