 Gaussian 09, Revision D.01,
 Gaussian 09:  ES64L-G09RevD.01 24-Apr-2013

 -----------------
 #RHF 6-31G(d',p')
 -----------------

 ------------------
 H2S.r0.90theta79.0
 ------------------
 Symbolic Z-matrix:
 Charge =  0 Multiplicity = 1

                         Standard orientation:
 ---------------------------------------------------------------------
 Center     Atomic      Atomic             Coordinates (Angstroms)
 Number     Number       Type             X           Y           Z
 ---------------------------------------------------------------------
      1         16           0        0.000000    0.000000    0.077162
      2          1           0        0.000000    0.572470   -0.617300
      3          1           0        0.000000   -0.572470   -0.617300
 ---------------------------------------------------------------------

 SCF Done:  E(RHF) =  -398.190510256     A.U. after    9 cycles

 The electronic state is 1-A1.
 Alpha  occ. eigenvalues --  -91.87816  -8.94347  -6.62884  -6.62528  -6.61260
 Alpha  occ. eigenvalues --   -1.17170  -0.67743  -0.54716  -0.39312
 Alpha virt. eigenvalues --    0.22452   0.28686   0.40037   0.47616   0.52193
 Alpha virt. eigenvalues --    0.52609   0.84395   0.86465   0.92100   0.94446
 Alpha virt. eigenvalues --    1.08588   1.69024   1.77003   1.96192   1.99512

 Mulliken charges:
               1
     1  S    0.115419
     2  H   -0.057709
     3  H   -0.057709
 Sum of Mulliken charges =   0.00000

 Dipole moment (field-independent basis, Debye):
    X=              0.0000    Y=              0.0000    Z=             -1.2152  Tot=              1.2152
 Quadrupole moment (field-independent basis, Debye-Ang):
   XX=            -15.5224   YY=            -12.2856   ZZ=            -12.8520
   XY=              0.0000   XZ=              0.0000   YZ=              0.0000

 Normal termination of Gaussian 09 at Tue Sep 30 07:26:18 2014.
