 Gaussian 09, Revision D.01,
 Gaussian 09:  ES64L-G09RevD.01 24-Apr-2013

 -----------------
 #RHF 6-31G(d',p')
 -----------------

 -------------------
 H2S.r1.50theta128.0
 -------------------
 Symbolic Z-matrix:
 Charge =  0 Multiplicity = 1

                         Standard orientation:
 ---------------------------------------------------------------------
 Center     Atomic      Atomic             Coordinates (Angstroms)
 Number     Number       Type             X           Y           Z
 ---------------------------------------------------------------------
      1         16           0        0.000000    0.000000    0.073062
      2          1           0        0.000000    1.348191   -0.584495
      3          1           0        0.000000   -1.348191   -0.584495
 ---------------------------------------------------------------------

 SCF Done:  E(RHF) =  -398.620156172     A.U. after   10 cycles

 The electronic state is 1-A1.
 Alpha  occ. eigenvalues --  -91.97120  -8.97663  -6.65934  -6.65822  -6.65631
 Alpha  occ. eigenvalues --   -0.94173  -0.59157  -0.43111  -0.38061
 Alpha virt. eigenvalues --    0.08400   0.19002   0.46485   0.49251   0.52999
 Alpha virt. eigenvalues --    0.53649   0.88481   0.92798   0.95289   1.00022
 Alpha virt. eigenvalues --    1.01518   1.20314   1.21216   1.59467   1.61758

 Mulliken charges:
               1
     1  S   -0.148231
     2  H    0.074115
     3  H    0.074115
 Sum of Mulliken charges =   0.00000

 Dipole moment (field-independent basis, Debye):
    X=              0.0000    Y=              0.0000    Z=             -1.4028  Tot=              1.4028
 Quadrupole moment (field-independent basis, Debye-Ang):
   XX=            -17.1402   YY=            -10.5786   ZZ=            -15.2419
   XY=              0.0000   XZ=              0.0000   YZ=              0.0000

 Normal termination of Gaussian 09 at Tue Sep 30 07:39:17 2014.
