 Gaussian 09, Revision D.01,
 Gaussian 09:  ES64L-G09RevD.01 24-Apr-2013

 -----------------
 #RHF 6-31G(d',p')
 -----------------

 -------------------
 H2S.r0.90theta136.0
 -------------------
 Symbolic Z-matrix:
 Charge =  0 Multiplicity = 1

                         Standard orientation:
 ---------------------------------------------------------------------
 Center     Atomic      Atomic             Coordinates (Angstroms)
 Number     Number       Type             X           Y           Z
 ---------------------------------------------------------------------
      1         16           0        0.000000    0.000000    0.037461
      2          1           0        0.000000    0.834465   -0.299685
      3          1           0        0.000000   -0.834465   -0.299685
 ---------------------------------------------------------------------

 SCF Done:  E(RHF) =  -398.166341093     A.U. after   10 cycles

 The electronic state is 1-A1.
 Alpha  occ. eigenvalues --  -91.88172  -8.95029  -6.64362  -6.62476  -6.62086
 Alpha  occ. eigenvalues --   -1.13670  -0.82606  -0.43997  -0.39631
 Alpha virt. eigenvalues --    0.21810   0.27319   0.38256   0.46246   0.52258
 Alpha virt. eigenvalues --    0.52363   0.85009   0.85882   0.97045   1.00199
 Alpha virt. eigenvalues --    1.00430   1.59138   1.69695   1.88435   2.05719

 Mulliken charges:
               1
     1  S    0.113367
     2  H   -0.056684
     3  H   -0.056684
 Sum of Mulliken charges =   0.00000

 Dipole moment (field-independent basis, Debye):
    X=              0.0000    Y=              0.0000    Z=             -1.6464  Tot=              1.6464
 Quadrupole moment (field-independent basis, Debye-Ang):
   XX=            -15.3940   YY=            -11.2036   ZZ=            -14.4946
   XY=              0.0000   XZ=              0.0000   YZ=              0.0000

 Normal termination of Gaussian 09 at Tue Sep 30 07:26:57 2014.
