 Gaussian 09, Revision D.01,
 Gaussian 09:  ES64L-G09RevD.01 24-Apr-2013

 -----------------
 #RHF 6-31G(d',p')
 -----------------

 -------------------
 H2S.r1.40theta157.0
 -------------------
 Symbolic Z-matrix:
 Charge =  0 Multiplicity = 1

                         Standard orientation:
 ---------------------------------------------------------------------
 Center     Atomic      Atomic             Coordinates (Angstroms)
 Number     Number       Type             X           Y           Z
 ---------------------------------------------------------------------
      1         16           0        0.000000    0.000000    0.031013
      2          1           0        0.000000    1.371895   -0.248102
      3          1           0        0.000000   -1.371895   -0.248102
 ---------------------------------------------------------------------

 SCF Done:  E(RHF) =  -398.574505549     A.U. after   10 cycles

 The electronic state is 1-A1.
 Alpha  occ. eigenvalues --  -91.94647  -8.95737  -6.64181  -6.63993  -6.63897
 Alpha  occ. eigenvalues --   -0.95671  -0.63983  -0.38673  -0.37404
 Alpha virt. eigenvalues --    0.03868   0.28983   0.43560   0.50837   0.54153
 Alpha virt. eigenvalues --    0.54460   0.82644   0.88557   0.97344   1.04437
 Alpha virt. eigenvalues --    1.04525   1.11036   1.35226   1.56924   1.61400

 Mulliken charges:
               1
     1  S   -0.333662
     2  H    0.166831
     3  H    0.166831
 Sum of Mulliken charges =   0.00000

 Dipole moment (field-independent basis, Debye):
    X=              0.0000    Y=              0.0000    Z=             -1.3668  Tot=              1.3668
 Quadrupole moment (field-independent basis, Debye-Ang):
   XX=            -17.0850   YY=             -8.8245   ZZ=            -16.3646
   XY=              0.0000   XZ=              0.0000   YZ=              0.0000

 Normal termination of Gaussian 09 at Tue Sep 30 07:37:32 2014.
