 Gaussian 09, Revision D.01,
 Gaussian 09:  ES64L-G09RevD.01 24-Apr-2013

 -----------------
 #RHF 6-31G(d',p')
 -----------------

 ------------------
 H2S.r1.65theta92.0
 ------------------
 Symbolic Z-matrix:
 Charge =  0 Multiplicity = 1

                         Standard orientation:
 ---------------------------------------------------------------------
 Center     Atomic      Atomic             Coordinates (Angstroms)
 Number     Number       Type             X           Y           Z
 ---------------------------------------------------------------------
      1         16           0        0.000000    0.000000    0.127354
      2          1           0        0.000000    1.186911   -1.018832
      3          1           0        0.000000   -1.186911   -1.018832
 ---------------------------------------------------------------------

 SCF Done:  E(RHF) =  -398.607838420     A.U. after   10 cycles

 The electronic state is 1-A1.
 Alpha  occ. eigenvalues --  -91.99424  -8.99545  -6.67739  -6.67654  -6.67415
 Alpha  occ. eigenvalues --   -0.92311  -0.51101  -0.47260  -0.38567
 Alpha virt. eigenvalues --    0.09736   0.11066   0.49520   0.51121   0.53164
 Alpha virt. eigenvalues --    0.56373   0.90979   0.93341   0.95389   0.98507
 Alpha virt. eigenvalues --    0.99385   1.11746   1.18616   1.55957   1.57381

 Mulliken charges:
               1
     1  S   -0.108465
     2  H    0.054232
     3  H    0.054232
 Sum of Mulliken charges =   0.00000

 Dipole moment (field-independent basis, Debye):
    X=              0.0000    Y=              0.0000    Z=             -1.2003  Tot=              1.2003
 Quadrupole moment (field-independent basis, Debye-Ang):
   XX=            -17.3847   YY=            -12.5384   ZZ=            -13.7026
   XY=              0.0000   XZ=              0.0000   YZ=              0.0000

 Normal termination of Gaussian 09 at Tue Sep 30 07:42:01 2014.
