 Gaussian 09, Revision D.01,
 Gaussian 09:  ES64L-G09RevD.01 24-Apr-2013

 -----------------
 #RHF 6-31G(d',p')
 -----------------

 ------------------
 H2S.r0.80theta77.0
 ------------------
 Symbolic Z-matrix:
 Charge =  0 Multiplicity = 1

                         Standard orientation:
 ---------------------------------------------------------------------
 Center     Atomic      Atomic             Coordinates (Angstroms)
 Number     Number       Type             X           Y           Z
 ---------------------------------------------------------------------
      1         16           0        0.000000    0.000000    0.069565
      2          1           0        0.000000    0.498012   -0.556521
      3          1           0        0.000000   -0.498012   -0.556521
 ---------------------------------------------------------------------

 SCF Done:  E(RHF) =  -397.757712324     A.U. after    9 cycles

 The electronic state is 1-A1.
 Alpha  occ. eigenvalues --  -91.86577  -8.95934  -6.64759  -6.63932  -6.61933
 Alpha  occ. eigenvalues --   -1.22773  -0.69019  -0.55448  -0.39821
 Alpha virt. eigenvalues --    0.22909   0.25118   0.44832   0.48775   0.52078
 Alpha virt. eigenvalues --    0.52652   0.85937   0.87158   0.92196   0.94967
 Alpha virt. eigenvalues --    1.07262   1.82063   1.86410   2.04211   2.06262

 Mulliken charges:
               1
     1  S    0.236412
     2  H   -0.118206
     3  H   -0.118206
 Sum of Mulliken charges =   0.00000

 Dipole moment (field-independent basis, Debye):
    X=              0.0000    Y=              0.0000    Z=             -1.1630  Tot=              1.1630
 Quadrupole moment (field-independent basis, Debye-Ang):
   XX=            -15.2542   YY=            -12.2335   ZZ=            -12.7095
   XY=              0.0000   XZ=              0.0000   YZ=              0.0000

 Normal termination of Gaussian 09 at Tue Sep 30 07:24:14 2014.
