 Gaussian 09, Revision D.01,
 Gaussian 09:  ES64L-G09RevD.01 24-Apr-2013

 -----------------
 #RHF 6-31G(d',p')
 -----------------

 ------------------
 H2S.r1.00theta76.0
 ------------------
 Symbolic Z-matrix:
 Charge =  0 Multiplicity = 1

                         Standard orientation:
 ---------------------------------------------------------------------
 Center     Atomic      Atomic             Coordinates (Angstroms)
 Number     Number       Type             X           Y           Z
 ---------------------------------------------------------------------
      1         16           0        0.000000    0.000000    0.087557
      2          1           0        0.000000    0.615661   -0.700454
      3          1           0        0.000000   -0.615661   -0.700454
 ---------------------------------------------------------------------

 SCF Done:  E(RHF) =  -398.434392973     A.U. after   10 cycles

 The electronic state is 1-A1.
 Alpha  occ. eigenvalues --  -91.89626  -8.94151  -6.62594  -6.62343  -6.61562
 Alpha  occ. eigenvalues --   -1.12501  -0.63962  -0.54953  -0.38972
 Alpha virt. eigenvalues --    0.21520   0.30866   0.36876   0.47634   0.51816
 Alpha virt. eigenvalues --    0.52992   0.84551   0.86105   0.91213   0.94919
 Alpha virt. eigenvalues --    1.07639   1.59599   1.67766   1.89370   1.89883

 Mulliken charges:
               1
     1  S    0.032323
     2  H   -0.016161
     3  H   -0.016161
 Sum of Mulliken charges =   0.00000

 Dipole moment (field-independent basis, Debye):
    X=              0.0000    Y=              0.0000    Z=             -1.2184  Tot=              1.2184
 Quadrupole moment (field-independent basis, Debye-Ang):
   XX=            -15.7925   YY=            -12.5344   ZZ=            -12.8371
   XY=              0.0000   XZ=              0.0000   YZ=              0.0000

 Normal termination of Gaussian 09 at Tue Sep 30 07:28:19 2014.
