 Gaussian 09, Revision D.01,
 Gaussian 09:  ES64L-G09RevD.01 24-Apr-2013

 -----------------
 #RHF 6-31G(d',p')
 -----------------

 -------------------
 H2S.r1.70theta122.0
 -------------------
 Symbolic Z-matrix:
 Charge =  0 Multiplicity = 1

                         Standard orientation:
 ---------------------------------------------------------------------
 Center     Atomic      Atomic             Coordinates (Angstroms)
 Number     Number       Type             X           Y           Z
 ---------------------------------------------------------------------
      1         16           0        0.000000    0.000000    0.091575
      2          1           0        0.000000    1.486854   -0.732601
      3          1           0        0.000000   -1.486854   -0.732601
 ---------------------------------------------------------------------

 SCF Done:  E(RHF) =  -398.570558935     A.U. after   10 cycles

 The electronic state is 1-A1.
 Alpha  occ. eigenvalues --  -91.99297  -8.99409  -6.67599  -6.67515  -6.67275
 Alpha  occ. eigenvalues --   -0.91407  -0.53146  -0.42858  -0.38329
 Alpha virt. eigenvalues --    0.04574   0.12555   0.49466   0.52390   0.53029
 Alpha virt. eigenvalues --    0.53279   0.91136   0.94053   0.97656   1.00427
 Alpha virt. eigenvalues --    1.02019   1.10440   1.12430   1.54719   1.57743

 Mulliken charges:
               1
     1  S   -0.145604
     2  H    0.072802
     3  H    0.072802
 Sum of Mulliken charges =   0.00000

 Dipole moment (field-independent basis, Debye):
    X=              0.0000    Y=              0.0000    Z=             -1.1788  Tot=              1.1788
 Quadrupole moment (field-independent basis, Debye-Ang):
   XX=            -17.5234   YY=            -10.7934   ZZ=            -15.0850
   XY=              0.0000   XZ=              0.0000   YZ=              0.0000

 Normal termination of Gaussian 09 at Tue Sep 30 07:43:24 2014.
