 Gaussian 09, Revision D.01,
 Gaussian 09:  ES64L-G09RevD.01 24-Apr-2013

 -----------------
 #RHF 6-31G(d',p')
 -----------------

 ------------------
 H2S.r0.90theta81.0
 ------------------
 Symbolic Z-matrix:
 Charge =  0 Multiplicity = 1

                         Standard orientation:
 ---------------------------------------------------------------------
 Center     Atomic      Atomic             Coordinates (Angstroms)
 Number     Number       Type             X           Y           Z
 ---------------------------------------------------------------------
      1         16           0        0.000000    0.000000    0.076041
      2          1           0        0.000000    0.584503   -0.608325
      3          1           0        0.000000   -0.584503   -0.608325
 ---------------------------------------------------------------------

 SCF Done:  E(RHF) =  -398.193677948     A.U. after    9 cycles

 The electronic state is 1-A1.
 Alpha  occ. eigenvalues --  -91.87795  -8.94332  -6.62822  -6.62560  -6.61250
 Alpha  occ. eigenvalues --   -1.16834  -0.68560  -0.54308  -0.39298
 Alpha virt. eigenvalues --    0.22492   0.28861   0.40150   0.47465   0.52300
 Alpha virt. eigenvalues --    0.52618   0.83895   0.86578   0.92470   0.94084
 Alpha virt. eigenvalues --    1.08802   1.68483   1.77181   1.95909   2.01591

 Mulliken charges:
               1
     1  S    0.118169
     2  H   -0.059085
     3  H   -0.059085
 Sum of Mulliken charges =   0.00000

 Dipole moment (field-independent basis, Debye):
    X=              0.0000    Y=              0.0000    Z=             -1.2314  Tot=              1.2314
 Quadrupole moment (field-independent basis, Debye-Ang):
   XX=            -15.5177   YY=            -12.2233   ZZ=            -12.9159
   XY=              0.0000   XZ=              0.0000   YZ=              0.0000

 Normal termination of Gaussian 09 at Tue Sep 30 07:26:20 2014.
