 Gaussian 09, Revision D.01,
 Gaussian 09:  ES64L-G09RevD.01 24-Apr-2013

 -----------------
 #RHF 6-31G(d',p')
 -----------------

 -------------------
 H2S.r1.20theta130.0
 -------------------
 Symbolic Z-matrix:
 Charge =  0 Multiplicity = 1

                         Standard orientation:
 ---------------------------------------------------------------------
 Center     Atomic      Atomic             Coordinates (Angstroms)
 Number     Number       Type             X           Y           Z
 ---------------------------------------------------------------------
      1         16           0        0.000000    0.000000    0.056349
      2          1           0        0.000000    1.087569   -0.450793
      3          1           0        0.000000   -1.087569   -0.450793
 ---------------------------------------------------------------------

 SCF Done:  E(RHF) =  -398.617013521     A.U. after   10 cycles

 The electronic state is 1-A1.
 Alpha  occ. eigenvalues --  -91.93022  -8.95225  -6.63719  -6.63367  -6.63191
 Alpha  occ. eigenvalues --   -1.01921  -0.69914  -0.43951  -0.38385
 Alpha virt. eigenvalues --    0.17189   0.26172   0.40563   0.44721   0.53268
 Alpha virt. eigenvalues --    0.53481   0.86933   0.87597   0.96893   0.99384
 Alpha virt. eigenvalues --    1.00321   1.37712   1.43097   1.72123   1.77422

 Mulliken charges:
               1
     1  S   -0.121496
     2  H    0.060748
     3  H    0.060748
 Sum of Mulliken charges =   0.00000

 Dipole moment (field-independent basis, Debye):
    X=              0.0000    Y=              0.0000    Z=             -1.6374  Tot=              1.6374
 Quadrupole moment (field-independent basis, Debye-Ang):
   XX=            -16.3465   YY=            -10.8219   ZZ=            -14.9621
   XY=              0.0000   XZ=              0.0000   YZ=              0.0000

 Normal termination of Gaussian 09 at Tue Sep 30 07:33:04 2014.
