 Gaussian 09, Revision D.01,
 Gaussian 09:  ES64L-G09RevD.01 24-Apr-2013

 -----------------
 #RHF 6-31G(d',p')
 -----------------

 -------------------
 H2S.r1.10theta154.0
 -------------------
 Symbolic Z-matrix:
 Charge =  0 Multiplicity = 1

                         Standard orientation:
 ---------------------------------------------------------------------
 Center     Atomic      Atomic             Coordinates (Angstroms)
 Number     Number       Type             X           Y           Z
 ---------------------------------------------------------------------
      1         16           0        0.000000    0.000000    0.027494
      2          1           0        0.000000    1.071807   -0.219952
      3          1           0        0.000000   -1.071807   -0.219952
 ---------------------------------------------------------------------

 SCF Done:  E(RHF) =  -398.503182061     A.U. after   10 cycles

 The electronic state is 1-A1.
 Alpha  occ. eigenvalues --  -91.91319  -8.94765  -6.63550  -6.62811  -6.62730
 Alpha  occ. eigenvalues --   -1.05324  -0.75878  -0.40458  -0.38714
 Alpha virt. eigenvalues --    0.13894   0.35007   0.38629   0.43768   0.53078
 Alpha virt. eigenvalues --    0.53355   0.80982   0.83815   0.97389   1.02733
 Alpha virt. eigenvalues --    1.02828   1.37074   1.56366   1.66997   1.86941

 Mulliken charges:
               1
     1  S   -0.192974
     2  H    0.096487
     3  H    0.096487
 Sum of Mulliken charges =   0.00000

 Dipole moment (field-independent basis, Debye):
    X=              0.0000    Y=              0.0000    Z=             -1.4077  Tot=              1.4077
 Quadrupole moment (field-independent basis, Debye-Ang):
   XX=            -16.0662   YY=            -10.3070   ZZ=            -15.5656
   XY=              0.0000   XZ=              0.0000   YZ=              0.0000

 Normal termination of Gaussian 09 at Tue Sep 30 07:31:16 2014.
