 Gaussian 09, Revision D.01,
 Gaussian 09:  ES64L-G09RevD.01 24-Apr-2013

 -----------------
 #RHF 6-31G(d',p')
 -----------------

 -------------------
 H2S.r1.65theta126.0
 -------------------
 Symbolic Z-matrix:
 Charge =  0 Multiplicity = 1

                         Standard orientation:
 ---------------------------------------------------------------------
 Center     Atomic      Atomic             Coordinates (Angstroms)
 Number     Number       Type             X           Y           Z
 ---------------------------------------------------------------------
      1         16           0        0.000000    0.000000    0.083232
      2          1           0        0.000000    1.470161   -0.665853
      3          1           0        0.000000   -1.470161   -0.665853
 ---------------------------------------------------------------------

 SCF Done:  E(RHF) =  -398.581108798     A.U. after   10 cycles

 The electronic state is 1-A1.
 Alpha  occ. eigenvalues --  -91.98726  -8.98927  -6.67136  -6.67047  -6.66821
 Alpha  occ. eigenvalues --   -0.91920  -0.54714  -0.42615  -0.38207
 Alpha virt. eigenvalues --    0.04913   0.14528   0.48751   0.51849   0.52812
 Alpha virt. eigenvalues --    0.53410   0.89909   0.94413   0.96436   1.00694
 Alpha virt. eigenvalues --    1.02098   1.12968   1.13730   1.55649   1.58942

 Mulliken charges:
               1
     1  S   -0.150997
     2  H    0.075499
     3  H    0.075499
 Sum of Mulliken charges =   0.00000

 Dipole moment (field-independent basis, Debye):
    X=              0.0000    Y=              0.0000    Z=             -1.2343  Tot=              1.2343
 Quadrupole moment (field-independent basis, Debye-Ang):
   XX=            -17.4443   YY=            -10.5994   ZZ=            -15.2349
   XY=              0.0000   XZ=              0.0000   YZ=              0.0000

 Normal termination of Gaussian 09 at Tue Sep 30 07:42:24 2014.
