 Gaussian 09, Revision D.01,
 Gaussian 09:  ES64L-G09RevD.01 24-Apr-2013

 -----------------
 #RHF 6-31G(d',p')
 -----------------

 -------------------
 H2S.r1.25theta111.0
 -------------------
 Symbolic Z-matrix:
 Charge =  0 Multiplicity = 1

                         Standard orientation:
 ---------------------------------------------------------------------
 Center     Atomic      Atomic             Coordinates (Angstroms)
 Number     Number       Type             X           Y           Z
 ---------------------------------------------------------------------
      1         16           0        0.000000    0.000000    0.078668
      2          1           0        0.000000    1.030158   -0.629340
      3          1           0        0.000000   -1.030158   -0.629340
 ---------------------------------------------------------------------

 SCF Done:  E(RHF) =  -398.659887391     A.U. after   10 cycles

 The electronic state is 1-A1.
 Alpha  occ. eigenvalues --  -91.94030  -8.95734  -6.64110  -6.63901  -6.63679
 Alpha  occ. eigenvalues --   -1.00525  -0.65445  -0.47177  -0.38351
 Alpha virt. eigenvalues --    0.20873   0.21448   0.43229   0.46173   0.52437
 Alpha virt. eigenvalues --    0.53555   0.89669   0.89869   0.92345   0.97706
 Alpha virt. eigenvalues --    0.98074   1.35979   1.49803   1.62548   1.77689

 Mulliken charges:
               1
     1  S   -0.080088
     2  H    0.040044
     3  H    0.040044
 Sum of Mulliken charges =   0.00000

 Dipole moment (field-independent basis, Debye):
    X=              0.0000    Y=              0.0000    Z=             -1.5033  Tot=              1.5033
 Quadrupole moment (field-independent basis, Debye-Ang):
   XX=            -16.4543   YY=            -11.4951   ZZ=            -14.3560
   XY=              0.0000   XZ=              0.0000   YZ=              0.0000

 Normal termination of Gaussian 09 at Tue Sep 30 07:33:53 2014.
