 Gaussian 09, Revision D.01,
 Gaussian 09:  ES64L-G09RevD.01 24-Apr-2013

 -----------------
 #RHF 6-31G(d',p')
 -----------------

 ------------------
 H2S.r0.75theta82.0
 ------------------
 Symbolic Z-matrix:
 Charge =  0 Multiplicity = 1

                         Standard orientation:
 ---------------------------------------------------------------------
 Center     Atomic      Atomic             Coordinates (Angstroms)
 Number     Number       Type             X           Y           Z
 ---------------------------------------------------------------------
      1         16           0        0.000000    0.000000    0.062892
      2          1           0        0.000000    0.492044   -0.503140
      3          1           0        0.000000   -0.492044   -0.503140
 ---------------------------------------------------------------------

 SCF Done:  E(RHF) =  -397.452010601     A.U. after    9 cycles

 The electronic state is 1-A1.
 Alpha  occ. eigenvalues --  -91.86346  -8.97559  -6.66283  -6.65718  -6.62867
 Alpha  occ. eigenvalues --   -1.23966  -0.72067  -0.54570  -0.40081
 Alpha virt. eigenvalues --    0.22981   0.23745   0.47298   0.49362   0.51786
 Alpha virt. eigenvalues --    0.54582   0.85334   0.87690   0.93275   0.94275
 Alpha virt. eigenvalues --    1.06594   1.87431   1.91532   2.07246   2.17235

 Mulliken charges:
               1
     1  S    0.327380
     2  H   -0.163690
     3  H   -0.163690
 Sum of Mulliken charges =   0.00000

 Dipole moment (field-independent basis, Debye):
    X=              0.0000    Y=              0.0000    Z=             -1.1756  Tot=              1.1756
 Quadrupole moment (field-independent basis, Debye-Ang):
   XX=            -15.0957   YY=            -12.0580   ZZ=            -12.8147
   XY=              0.0000   XZ=              0.0000   YZ=              0.0000

 Normal termination of Gaussian 09 at Tue Sep 30 07:23:16 2014.
