 Gaussian 09, Revision D.01,
 Gaussian 09:  ES64L-G09RevD.01 24-Apr-2013

 -----------------
 #RHF 6-31G(d',p')
 -----------------

 ------------------
 H2S.r0.85theta76.0
 ------------------
 Symbolic Z-matrix:
 Charge =  0 Multiplicity = 1

                         Standard orientation:
 ---------------------------------------------------------------------
 Center     Atomic      Atomic             Coordinates (Angstroms)
 Number     Number       Type             X           Y           Z
 ---------------------------------------------------------------------
      1         16           0        0.000000    0.000000    0.074423
      2          1           0        0.000000    0.523312   -0.595386
      3          1           0        0.000000   -0.523312   -0.595386
 ---------------------------------------------------------------------

 SCF Done:  E(RHF) =  -397.998669262     A.U. after    9 cycles

 The electronic state is 1-A1.
 Alpha  occ. eigenvalues --  -91.87118  -8.94929  -6.63652  -6.62976  -6.61448
 Alpha  occ. eigenvalues --   -1.20410  -0.67597  -0.55499  -0.39568
 Alpha virt. eigenvalues --    0.22715   0.26707   0.42189   0.48229   0.52130
 Alpha virt. eigenvalues --    0.52348   0.85745   0.86710   0.91767   0.95048
 Alpha virt. eigenvalues --    1.07825   1.76095   1.81445   2.00377   2.00560

 Mulliken charges:
               1
     1  S    0.167676
     2  H   -0.083838
     3  H   -0.083838
 Sum of Mulliken charges =   0.00000

 Dipole moment (field-independent basis, Debye):
    X=              0.0000    Y=              0.0000    Z=             -1.1777  Tot=              1.1777
 Quadrupole moment (field-independent basis, Debye-Ang):
   XX=            -15.3952   YY=            -12.3201   ZZ=            -12.7161
   XY=              0.0000   XZ=              0.0000   YZ=              0.0000

 Normal termination of Gaussian 09 at Tue Sep 30 07:25:15 2014.
