 Gaussian 09, Revision D.01,
 Gaussian 09:  ES64L-G09RevD.01 24-Apr-2013

 -----------------
 #RHF 6-31G(d',p')
 -----------------

 -------------------
 H2S.r0.90theta104.0
 -------------------
 Symbolic Z-matrix:
 Charge =  0 Multiplicity = 1

                         Standard orientation:
 ---------------------------------------------------------------------
 Center     Atomic      Atomic             Coordinates (Angstroms)
 Number     Number       Type             X           Y           Z
 ---------------------------------------------------------------------
      1         16           0        0.000000    0.000000    0.061566
      2          1           0        0.000000    0.709210   -0.492529
      3          1           0        0.000000   -0.709210   -0.492529
 ---------------------------------------------------------------------

 SCF Done:  E(RHF) =  -398.206394603     A.U. after    9 cycles

 The electronic state is 1-A1.
 Alpha  occ. eigenvalues --  -91.87751  -8.94397  -6.63137  -6.62376  -6.61360
 Alpha  occ. eigenvalues --   -1.14554  -0.76383  -0.49773  -0.39309
 Alpha virt. eigenvalues --    0.23834   0.28434   0.39649   0.46054   0.52182
 Alpha virt. eigenvalues --    0.52583   0.85908   0.89693   0.89821   0.96332
 Alpha virt. eigenvalues --    1.04904   1.68914   1.79625   1.93713   1.98196

 Mulliken charges:
               1
     1  S    0.141467
     2  H   -0.070734
     3  H   -0.070734
 Sum of Mulliken charges =   0.00000

 Dipole moment (field-independent basis, Debye):
    X=              0.0000    Y=              0.0000    Z=             -1.4844  Tot=              1.4844
 Quadrupole moment (field-independent basis, Debye-Ang):
   XX=            -15.4623   YY=            -11.6680   ZZ=            -13.6118
   XY=              0.0000   XZ=              0.0000   YZ=              0.0000

 Normal termination of Gaussian 09 at Tue Sep 30 07:26:35 2014.
