 Gaussian 09, Revision D.01,
 Gaussian 09:  ES64L-G09RevD.01 24-Apr-2013

 -----------------
 #RHF 6-31G(d',p')
 -----------------

 -------------------
 H2S.r0.70theta146.0
 -------------------
 Symbolic Z-matrix:
 Charge =  0 Multiplicity = 1

                         Standard orientation:
 ---------------------------------------------------------------------
 Center     Atomic      Atomic             Coordinates (Angstroms)
 Number     Number       Type             X           Y           Z
 ---------------------------------------------------------------------
      1         16           0        0.000000    0.000000    0.022740
      2          1           0        0.000000    0.669413   -0.181920
      3          1           0        0.000000   -0.669413   -0.181920
 ---------------------------------------------------------------------

 SCF Done:  E(RHF) =  -397.014345784     A.U. after   10 cycles

 The electronic state is 1-A1.
 Alpha  occ. eigenvalues --  -91.87676  -9.01478  -6.73487  -6.66737  -6.66066
 Alpha  occ. eigenvalues --   -1.20954  -0.88997  -0.43562  -0.41044
 Alpha virt. eigenvalues --    0.18876   0.25239   0.46274   0.50830   0.50974
 Alpha virt. eigenvalues --    0.55737   0.82649   0.85206   0.95785   1.00193
 Alpha virt. eigenvalues --    1.00245   1.84892   1.92814   1.99624   2.31128

 Mulliken charges:
               1
     1  S    0.536829
     2  H   -0.268414
     3  H   -0.268414
 Sum of Mulliken charges =   0.00000

 Dipole moment (field-independent basis, Debye):
    X=              0.0000    Y=              0.0000    Z=             -1.3979  Tot=              1.3979
 Quadrupole moment (field-independent basis, Debye-Ang):
   XX=            -14.6990   YY=            -11.5251   ZZ=            -14.1867
   XY=              0.0000   XZ=              0.0000   YZ=              0.0000

 Normal termination of Gaussian 09 at Tue Sep 30 07:22:58 2014.
