 Gaussian 09, Revision D.01,
 Gaussian 09:  ES64L-G09RevD.01 24-Apr-2013

 -----------------
 #RHF 6-31G(d',p')
 -----------------

 -------------------
 H2S.r1.15theta106.0
 -------------------
 Symbolic Z-matrix:
 Charge =  0 Multiplicity = 1

                         Standard orientation:
 ---------------------------------------------------------------------
 Center     Atomic      Atomic             Coordinates (Angstroms)
 Number     Number       Type             X           Y           Z
 ---------------------------------------------------------------------
      1         16           0        0.000000    0.000000    0.076899
      2          1           0        0.000000    0.918431   -0.615189
      3          1           0        0.000000   -0.918431   -0.615189
 ---------------------------------------------------------------------

 SCF Done:  E(RHF) =  -398.623608961     A.U. after    9 cycles

 The electronic state is 1-A1.
 Alpha  occ. eigenvalues --  -91.92309  -8.94897  -6.63324  -6.63053  -6.62736
 Alpha  occ. eigenvalues --   -1.03997  -0.68074  -0.48513  -0.38521
 Alpha virt. eigenvalues --    0.22278   0.25527   0.40795   0.45778   0.52374
 Alpha virt. eigenvalues --    0.53406   0.87610   0.89690   0.90798   0.96583
 Alpha virt. eigenvalues --    1.00977   1.44408   1.62295   1.67436   1.82586

 Mulliken charges:
               1
     1  S   -0.050225
     2  H    0.025112
     3  H    0.025112
 Sum of Mulliken charges =   0.00000

 Dipole moment (field-independent basis, Debye):
    X=              0.0000    Y=              0.0000    Z=             -1.4981  Tot=              1.4981
 Quadrupole moment (field-independent basis, Debye-Ang):
   XX=            -16.1692   YY=            -11.6711   ZZ=            -14.0492
   XY=              0.0000   XZ=              0.0000   YZ=              0.0000

 Normal termination of Gaussian 09 at Tue Sep 30 07:31:45 2014.
