 Gaussian 09, Revision D.01,
 Gaussian 09:  ES64L-G09RevD.01 24-Apr-2013

 -----------------
 #RHF 6-31G(d',p')
 -----------------

 -------------------
 H2S.r1.35theta160.0
 -------------------
 Symbolic Z-matrix:
 Charge =  0 Multiplicity = 1

                         Standard orientation:
 ---------------------------------------------------------------------
 Center     Atomic      Atomic             Coordinates (Angstroms)
 Number     Number       Type             X           Y           Z
 ---------------------------------------------------------------------
      1         16           0        0.000000    0.000000    0.026047
      2          1           0        0.000000    1.329490   -0.208378
      3          1           0        0.000000   -1.329490   -0.208378
 ---------------------------------------------------------------------

 SCF Done:  E(RHF) =  -398.572314536     A.U. after   10 cycles

 The electronic state is 1-A1.
 Alpha  occ. eigenvalues --  -91.93987  -8.95343  -6.63848  -6.63623  -6.63552
 Alpha  occ. eigenvalues --   -0.96896  -0.65898  -0.38447  -0.37448
 Alpha virt. eigenvalues --    0.04730   0.31731   0.42813   0.49819   0.54118
 Alpha virt. eigenvalues --    0.54407   0.81912   0.87218   0.95440   1.04592
 Alpha virt. eigenvalues --    1.04642   1.14476   1.40348   1.57172   1.62145

 Mulliken charges:
               1
     1  S   -0.356210
     2  H    0.178105
     3  H    0.178105
 Sum of Mulliken charges =   0.00000

 Dipole moment (field-independent basis, Debye):
    X=              0.0000    Y=              0.0000    Z=             -1.2861  Tot=              1.2861
 Quadrupole moment (field-independent basis, Debye-Ang):
   XX=            -16.9599   YY=             -8.7960   ZZ=            -16.4279
   XY=              0.0000   XZ=              0.0000   YZ=              0.0000

 Normal termination of Gaussian 09 at Tue Sep 30 07:36:32 2014.
