 Gaussian 09, Revision D.01,
 Gaussian 09:  ES64L-G09RevD.01 24-Apr-2013

 -----------------
 #RHF 6-31G(d',p')
 -----------------

 -------------------
 H2S.r1.80theta107.0
 -------------------
 Symbolic Z-matrix:
 Charge =  0 Multiplicity = 1

                         Standard orientation:
 ---------------------------------------------------------------------
 Center     Atomic      Atomic             Coordinates (Angstroms)
 Number     Number       Type             X           Y           Z
 ---------------------------------------------------------------------
      1         16           0        0.000000    0.000000    0.118965
      2          1           0        0.000000    1.446942   -0.951716
      3          1           0        0.000000   -1.446942   -0.951716
 ---------------------------------------------------------------------

 SCF Done:  E(RHF) =  -398.550675374     A.U. after    9 cycles

 The electronic state is 1-A1.
 Alpha  occ. eigenvalues --  -92.00457  -9.00410  -6.68573  -6.68493  -6.68230
 Alpha  occ. eigenvalues --   -0.90665  -0.49610  -0.43950  -0.38639
 Alpha virt. eigenvalues --    0.04975   0.08051   0.49311   0.52982   0.53063
 Alpha virt. eigenvalues --    0.56267   0.93626   0.94274   0.99323   0.99824
 Alpha virt. eigenvalues --    1.01623   1.06258   1.10127   1.53736   1.54783

 Mulliken charges:
               1
     1  S   -0.137253
     2  H    0.068626
     3  H    0.068626
 Sum of Mulliken charges =   0.00000

 Dipole moment (field-independent basis, Debye):
    X=              0.0000    Y=              0.0000    Z=             -1.1104  Tot=              1.1104
 Quadrupole moment (field-independent basis, Debye-Ang):
   XX=            -17.6646   YY=            -11.5998   ZZ=            -14.4028
   XY=              0.0000   XZ=              0.0000   YZ=              0.0000

 Normal termination of Gaussian 09 at Tue Sep 30 07:45:20 2014.
