 Gaussian 09, Revision D.01,
 Gaussian 09:  ES64L-G09RevD.01 24-Apr-2013

 -----------------
 #RHF 6-31G(d',p')
 -----------------

 -------------------
 H2S.r0.65theta128.0
 -------------------
 Symbolic Z-matrix:
 Charge =  0 Multiplicity = 1

                         Standard orientation:
 ---------------------------------------------------------------------
 Center     Atomic      Atomic             Coordinates (Angstroms)
 Number     Number       Type             X           Y           Z
 ---------------------------------------------------------------------
      1         16           0        0.000000    0.000000    0.031660
      2          1           0        0.000000    0.584216   -0.253281
      3          1           0        0.000000   -0.584216   -0.253281
 ---------------------------------------------------------------------

 SCF Done:  E(RHF) =  -396.521924884     A.U. after   10 cycles

 The electronic state is 1-A1.
 Alpha  occ. eigenvalues --  -91.88786  -9.04884  -6.77092  -6.70125  -6.68165
 Alpha  occ. eigenvalues --   -1.22384  -0.86880  -0.46465  -0.41229
 Alpha virt. eigenvalues --    0.19942   0.24139   0.50173   0.50607   0.52915
 Alpha virt. eigenvalues --    0.53816   0.86114   0.87759   0.93101   0.98812
 Alpha virt. eigenvalues --    0.98937   1.95141   2.03753   2.13591   2.23437

 Mulliken charges:
               1
     1  S    0.670728
     2  H   -0.335364
     3  H   -0.335364
 Sum of Mulliken charges =   0.00000

 Dipole moment (field-independent basis, Debye):
    X=              0.0000    Y=              0.0000    Z=             -1.4718  Tot=              1.4718
 Quadrupole moment (field-independent basis, Debye-Ang):
   XX=            -14.6139   YY=            -11.6094   ZZ=            -13.7204
   XY=              0.0000   XZ=              0.0000   YZ=              0.0000

 Normal termination of Gaussian 09 at Tue Sep 30 07:21:44 2014.
