 Gaussian 09, Revision D.01,
 Gaussian 09:  ES64L-G09RevD.01 24-Apr-2013

 -----------------
 #RHF 6-31G(d',p')
 -----------------

 ------------------
 H2S.r0.60theta93.0
 ------------------
 Symbolic Z-matrix:
 Charge =  0 Multiplicity = 1

                         Standard orientation:
 ---------------------------------------------------------------------
 Center     Atomic      Atomic             Coordinates (Angstroms)
 Number     Number       Type             X           Y           Z
 ---------------------------------------------------------------------
      1         16           0        0.000000    0.000000    0.045890
      2          1           0        0.000000    0.435225   -0.367122
      3          1           0        0.000000   -0.435225   -0.367122
 ---------------------------------------------------------------------

 SCF Done:  E(RHF) =  -395.853240554     A.U. after    9 cycles

 The electronic state is 1-A1.
 Alpha  occ. eigenvalues --  -91.91445  -9.10301  -6.79625  -6.77916  -6.71546
 Alpha  occ. eigenvalues --   -1.25769  -0.77054  -0.52884  -0.41443
 Alpha virt. eigenvalues --    0.20242   0.22821   0.48272   0.50227   0.53593
 Alpha virt. eigenvalues --    0.68205   0.86496   0.87146   0.93013   0.95089
 Alpha virt. eigenvalues --    0.99932   2.06508   2.07428   2.17761   2.31235

 Mulliken charges:
               1
     1  S    0.700239
     2  H   -0.350119
     3  H   -0.350119
 Sum of Mulliken charges =   0.00000

 Dipole moment (field-independent basis, Debye):
    X=              0.0000    Y=              0.0000    Z=             -1.1179  Tot=              1.1179
 Quadrupole moment (field-independent basis, Debye-Ang):
   XX=            -14.5666   YY=            -11.8381   ZZ=            -12.9718
   XY=              0.0000   XZ=              0.0000   YZ=              0.0000

 Normal termination of Gaussian 09 at Tue Sep 30 07:20:20 2014.
