 Gaussian 09, Revision D.01,
 Gaussian 09:  ES64L-G09RevD.01 24-Apr-2013

 -----------------
 #RHF 6-31G(d',p')
 -----------------

 -------------------
 H2S.r0.60theta127.0
 -------------------
 Symbolic Z-matrix:
 Charge =  0 Multiplicity = 1

                         Standard orientation:
 ---------------------------------------------------------------------
 Center     Atomic      Atomic             Coordinates (Angstroms)
 Number     Number       Type             X           Y           Z
 ---------------------------------------------------------------------
      1         16           0        0.000000    0.000000    0.029747
      2          1           0        0.000000    0.536961   -0.237972
      3          1           0        0.000000   -0.536961   -0.237972
 ---------------------------------------------------------------------

 SCF Done:  E(RHF) =  -395.847877517     A.U. after   10 cycles

 The electronic state is 1-A1.
 Alpha  occ. eigenvalues --  -91.92017  -9.10860  -6.84434  -6.75104  -6.72440
 Alpha  occ. eigenvalues --   -1.22994  -0.86148  -0.46993  -0.41795
 Alpha virt. eigenvalues --    0.19272   0.23731   0.49505   0.49989   0.56217
 Alpha virt. eigenvalues --    0.57968   0.85240   0.88322   0.91774   0.98263
 Alpha virt. eigenvalues --    0.98344   2.00529   2.12629   2.16461   2.28946

 Mulliken charges:
               1
     1  S    0.799036
     2  H   -0.399518
     3  H   -0.399518
 Sum of Mulliken charges =   0.00000

 Dipole moment (field-independent basis, Debye):
    X=              0.0000    Y=              0.0000    Z=             -1.3812  Tot=              1.3812
 Quadrupole moment (field-independent basis, Debye-Ang):
   XX=            -14.4437   YY=            -11.6805   ZZ=            -13.5995
   XY=              0.0000   XZ=              0.0000   YZ=              0.0000

 Normal termination of Gaussian 09 at Tue Sep 30 07:20:43 2014.
