 Gaussian 09, Revision D.01,
 Gaussian 09:  ES64L-G09RevD.01 24-Apr-2013

 -----------------
 #RHF 6-31G(d',p')
 -----------------

 -------------------
 H2S.r1.35theta123.0
 -------------------
 Symbolic Z-matrix:
 Charge =  0 Multiplicity = 1

                         Standard orientation:
 ---------------------------------------------------------------------
 Center     Atomic      Atomic             Coordinates (Angstroms)
 Number     Number       Type             X           Y           Z
 ---------------------------------------------------------------------
      1         16           0        0.000000    0.000000    0.071574
      2          1           0        0.000000    1.186403   -0.572591
      3          1           0        0.000000   -1.186403   -0.572591
 ---------------------------------------------------------------------

 SCF Done:  E(RHF) =  -398.651459830     A.U. after   10 cycles

 The electronic state is 1-A1.
 Alpha  occ. eigenvalues --  -91.95376  -8.96494  -6.64837  -6.64668  -6.64491
 Alpha  occ. eigenvalues --   -0.97544  -0.63594  -0.44629  -0.38170
 Alpha virt. eigenvalues --    0.14316   0.21710   0.44251   0.46777   0.52933
 Alpha virt. eigenvalues --    0.53660   0.89292   0.89985   0.95034   0.98203
 Alpha virt. eigenvalues --    0.99986   1.30038   1.32604   1.63692   1.68086

 Mulliken charges:
               1
     1  S   -0.121119
     2  H    0.060559
     3  H    0.060559
 Sum of Mulliken charges =   0.00000

 Dipole moment (field-independent basis, Debye):
    X=              0.0000    Y=              0.0000    Z=             -1.5180  Tot=              1.5180
 Quadrupole moment (field-independent basis, Debye-Ang):
   XX=            -16.7520   YY=            -10.9424   ZZ=            -14.9178
   XY=              0.0000   XZ=              0.0000   YZ=              0.0000

 Normal termination of Gaussian 09 at Tue Sep 30 07:36:06 2014.
