 Gaussian 09, Revision D.01,
 Gaussian 09:  ES64L-G09RevD.01 24-Apr-2013

 -----------------
 #RHF 6-31G(d',p')
 -----------------

 -------------------
 H2S.r1.60theta115.0
 -------------------
 Symbolic Z-matrix:
 Charge =  0 Multiplicity = 1

                         Standard orientation:
 ---------------------------------------------------------------------
 Center     Atomic      Atomic             Coordinates (Angstroms)
 Number     Number       Type             X           Y           Z
 ---------------------------------------------------------------------
      1         16           0        0.000000    0.000000    0.095520
      2          1           0        0.000000    1.349426   -0.764159
      3          1           0        0.000000   -1.349426   -0.764159
 ---------------------------------------------------------------------

 SCF Done:  E(RHF) =  -398.611158736     A.U. after   10 cycles

 The electronic state is 1-A1.
 Alpha  occ. eigenvalues --  -91.98531  -8.98783  -6.67003  -6.66909  -6.66691
 Alpha  occ. eigenvalues --   -0.92713  -0.55113  -0.44526  -0.38290
 Alpha virt. eigenvalues --    0.08688   0.14053   0.49497   0.50371   0.52559
 Alpha virt. eigenvalues --    0.53400   0.91271   0.93007   0.96002   0.98278
 Alpha virt. eigenvalues --    1.00856   1.14304   1.19572   1.55088   1.60806

 Mulliken charges:
               1
     1  S   -0.124499
     2  H    0.062249
     3  H    0.062249
 Sum of Mulliken charges =   0.00000

 Dipole moment (field-independent basis, Debye):
    X=              0.0000    Y=              0.0000    Z=             -1.2667  Tot=              1.2667
 Quadrupole moment (field-independent basis, Debye-Ang):
   XX=            -17.3129   YY=            -11.2188   ZZ=            -14.7663
   XY=              0.0000   XZ=              0.0000   YZ=              0.0000

 Normal termination of Gaussian 09 at Tue Sep 30 07:41:14 2014.
