 Gaussian 09, Revision D.01,
 Gaussian 09:  ES64L-G09RevD.01 24-Apr-2013

 -----------------
 #RHF 6-31G(d',p')
 -----------------

 ------------------
 H2S.r1.70theta93.0
 ------------------
 Symbolic Z-matrix:
 Charge =  0 Multiplicity = 1

                         Standard orientation:
 ---------------------------------------------------------------------
 Center     Atomic      Atomic             Coordinates (Angstroms)
 Number     Number       Type             X           Y           Z
 ---------------------------------------------------------------------
      1         16           0        0.000000    0.000000    0.130023
      2          1           0        0.000000    1.233136   -1.040180
      3          1           0        0.000000   -1.233136   -1.040180
 ---------------------------------------------------------------------

 SCF Done:  E(RHF) =  -398.590886395     A.U. after   10 cycles

 The electronic state is 1-A1.
 Alpha  occ. eigenvalues --  -91.99857  -8.99906  -6.68088  -6.68005  -6.67758
 Alpha  occ. eigenvalues --   -0.91718  -0.50159  -0.46613  -0.38617
 Alpha virt. eigenvalues --    0.08700   0.09528   0.49290   0.51651   0.53081
 Alpha virt. eigenvalues --    0.57228   0.91483   0.93697   0.96265   0.99147
 Alpha virt. eigenvalues --    1.00025   1.09720   1.15826   1.55145   1.56250

 Mulliken charges:
               1
     1  S   -0.116725
     2  H    0.058362
     3  H    0.058362
 Sum of Mulliken charges =   0.00000

 Dipole moment (field-independent basis, Debye):
    X=              0.0000    Y=              0.0000    Z=             -1.1806  Tot=              1.1806
 Quadrupole moment (field-independent basis, Debye-Ang):
   XX=            -17.4808   YY=            -12.4855   ZZ=            -13.7304
   XY=              0.0000   XZ=              0.0000   YZ=              0.0000

 Normal termination of Gaussian 09 at Tue Sep 30 07:43:04 2014.
