 Gaussian 09, Revision D.01,
 Gaussian 09:  ES64L-G09RevD.01 24-Apr-2013

 -----------------
 #RHF 6-31G(d',p')
 -----------------

 ------------------
 H2S.r0.70theta83.0
 ------------------
 Symbolic Z-matrix:
 Charge =  0 Multiplicity = 1

                         Standard orientation:
 ---------------------------------------------------------------------
 Center     Atomic      Atomic             Coordinates (Angstroms)
 Number     Number       Type             X           Y           Z
 ---------------------------------------------------------------------
      1         16           0        0.000000    0.000000    0.058252
      2          1           0        0.000000    0.463834   -0.466017
      3          1           0        0.000000   -0.463834   -0.466017
 ---------------------------------------------------------------------

 SCF Done:  E(RHF) =  -397.046046159     A.U. after    9 cycles

 The electronic state is 1-A1.
 Alpha  occ. eigenvalues --  -91.86809  -9.00205  -6.68963  -6.68373  -6.64552
 Alpha  occ. eigenvalues --   -1.25684  -0.73056  -0.54517  -0.40439
 Alpha virt. eigenvalues --    0.22310   0.22992   0.48240   0.50493   0.51399
 Alpha virt. eigenvalues --    0.57998   0.85788   0.87805   0.93619   0.94246
 Alpha virt. eigenvalues --    1.04830   1.93895   1.96890   2.10981   2.26065

 Mulliken charges:
               1
     1  S    0.424394
     2  H   -0.212197
     3  H   -0.212197
 Sum of Mulliken charges =   0.00000

 Dipole moment (field-independent basis, Debye):
    X=              0.0000    Y=              0.0000    Z=             -1.1470  Tot=              1.1470
 Quadrupole moment (field-independent basis, Debye-Ang):
   XX=            -14.9393   YY=            -12.0071   ZZ=            -12.8042
   XY=              0.0000   XZ=              0.0000   YZ=              0.0000

 Normal termination of Gaussian 09 at Tue Sep 30 07:22:15 2014.
