 Gaussian 09, Revision D.01,
 Gaussian 09:  ES64L-G09RevD.01 24-Apr-2013

 -----------------
 #RHF 6-31G(d',p')
 -----------------

 ------------------
 H2S.r1.00theta88.0
 ------------------
 Symbolic Z-matrix:
 Charge =  0 Multiplicity = 1

                         Standard orientation:
 ---------------------------------------------------------------------
 Center     Atomic      Atomic             Coordinates (Angstroms)
 Number     Number       Type             X           Y           Z
 ---------------------------------------------------------------------
      1         16           0        0.000000    0.000000    0.079927
      2          1           0        0.000000    0.694658   -0.639413
      3          1           0        0.000000   -0.694658   -0.639413
 ---------------------------------------------------------------------

 SCF Done:  E(RHF) =  -398.449416762     A.U. after    9 cycles

 The electronic state is 1-A1.
 Alpha  occ. eigenvalues --  -91.89533  -8.94089  -6.62446  -6.62370  -6.61524
 Alpha  occ. eigenvalues --   -1.11075  -0.68318  -0.52543  -0.38905
 Alpha virt. eigenvalues --    0.22071   0.31898   0.37277   0.46675   0.52340
 Alpha virt. eigenvalues --    0.53026   0.82506   0.87003   0.92616   0.93489
 Alpha virt. eigenvalues --    1.08104   1.57485   1.70091   1.88454   2.02457

 Mulliken charges:
               1
     1  S    0.039022
     2  H   -0.019511
     3  H   -0.019511
 Sum of Mulliken charges =   0.00000

 Dipole moment (field-independent basis, Debye):
    X=              0.0000    Y=              0.0000    Z=             -1.3173  Tot=              1.3173
 Quadrupole moment (field-independent basis, Debye-Ang):
   XX=            -15.7690   YY=            -12.1259   ZZ=            -13.2485
   XY=              0.0000   XZ=              0.0000   YZ=              0.0000

 Normal termination of Gaussian 09 at Tue Sep 30 07:28:27 2014.
