 Gaussian 09, Revision D.01,
 Gaussian 09:  ES64L-G09RevD.01 24-Apr-2013

 -----------------
 #RHF 6-31G(d',p')
 -----------------

 -------------------
 H2S.r1.75theta102.0
 -------------------
 Symbolic Z-matrix:
 Charge =  0 Multiplicity = 1

                         Standard orientation:
 ---------------------------------------------------------------------
 Center     Atomic      Atomic             Coordinates (Angstroms)
 Number     Number       Type             X           Y           Z
 ---------------------------------------------------------------------
      1         16           0        0.000000    0.000000    0.122368
      2          1           0        0.000000    1.360005   -0.978943
      3          1           0        0.000000   -1.360005   -0.978943
 ---------------------------------------------------------------------

 SCF Done:  E(RHF) =  -398.571078475     A.U. after   10 cycles

 The electronic state is 1-A1.
 Alpha  occ. eigenvalues --  -92.00145  -9.00143  -6.68317  -6.68234  -6.67980
 Alpha  occ. eigenvalues --   -0.91130  -0.50171  -0.45006  -0.38607
 Alpha virt. eigenvalues --    0.07007   0.08599   0.49394   0.52234   0.53043
 Alpha virt. eigenvalues --    0.56493   0.92626   0.93842   0.98117   0.99366
 Alpha virt. eigenvalues --    1.01044   1.07798   1.12982   1.53968   1.55612

 Mulliken charges:
               1
     1  S   -0.128075
     2  H    0.064038
     3  H    0.064038
 Sum of Mulliken charges =   0.00000

 Dipole moment (field-independent basis, Debye):
    X=              0.0000    Y=              0.0000    Z=             -1.1481  Tot=              1.1481
 Quadrupole moment (field-independent basis, Debye-Ang):
   XX=            -17.5756   YY=            -11.9216   ZZ=            -14.1679
   XY=              0.0000   XZ=              0.0000   YZ=              0.0000

 Normal termination of Gaussian 09 at Tue Sep 30 07:44:12 2014.
