 Gaussian 09, Revision D.01,
 Gaussian 09:  ES64L-G09RevD.01 24-Apr-2013

 -----------------
 #RHF 6-31G(d',p')
 -----------------

 -------------------
 H2S.r1.80theta121.0
 -------------------
 Symbolic Z-matrix:
 Charge =  0 Multiplicity = 1

                         Standard orientation:
 ---------------------------------------------------------------------
 Center     Atomic      Atomic             Coordinates (Angstroms)
 Number     Number       Type             X           Y           Z
 ---------------------------------------------------------------------
      1         16           0        0.000000    0.000000    0.098485
      2          1           0        0.000000    1.566640   -0.787878
      3          1           0        0.000000   -1.566640   -0.787878
 ---------------------------------------------------------------------

 SCF Done:  E(RHF) =  -398.537948281     A.U. after   10 cycles

 The electronic state is 1-A1.
 Alpha  occ. eigenvalues --  -92.00166  -9.00157  -6.68319  -6.68241  -6.67979
 Alpha  occ. eigenvalues --   -0.90525  -0.50726  -0.42277  -0.38503
 Alpha virt. eigenvalues --    0.02492   0.09838   0.49562   0.53076   0.54013
 Alpha virt. eigenvalues --    0.54074   0.92931   0.94744   0.99401   1.00917
 Alpha virt. eigenvalues --    1.02311   1.06716   1.08353   1.53825   1.55072

 Mulliken charges:
               1
     1  S   -0.151832
     2  H    0.075916
     3  H    0.075916
 Sum of Mulliken charges =   0.00000

 Dipole moment (field-independent basis, Debye):
    X=              0.0000    Y=              0.0000    Z=             -1.0828  Tot=              1.0828
 Quadrupole moment (field-independent basis, Debye-Ang):
   XX=            -17.6891   YY=            -10.7937   ZZ=            -15.0527
   XY=              0.0000   XZ=              0.0000   YZ=              0.0000

 Normal termination of Gaussian 09 at Tue Sep 30 07:45:30 2014.
