 Gaussian 09, Revision D.01,
 Gaussian 09:  ES64L-G09RevD.01 24-Apr-2013

 -----------------
 #RHF 6-31G(d',p')
 -----------------

 ------------------
 H2S.r1.30theta78.0
 ------------------
 Symbolic Z-matrix:
 Charge =  0 Multiplicity = 1

                         Standard orientation:
 ---------------------------------------------------------------------
 Center     Atomic      Atomic             Coordinates (Angstroms)
 Number     Number       Type             X           Y           Z
 ---------------------------------------------------------------------
      1         16           0        0.000000    0.000000    0.112254
      2          1           0        0.000000    0.818117   -0.898035
      3          1           0        0.000000   -0.818117   -0.898035
 ---------------------------------------------------------------------

 SCF Done:  E(RHF) =  -398.666236728     A.U. after   10 cycles

 The electronic state is 1-A1.
 Alpha  occ. eigenvalues --  -91.95153  -8.96468  -6.64716  -6.64672  -6.64370
 Alpha  occ. eigenvalues --   -1.00003  -0.56654  -0.52783  -0.38502
 Alpha virt. eigenvalues --    0.16457   0.22808   0.46357   0.48859   0.50693
 Alpha virt. eigenvalues --    0.53495   0.85364   0.88085   0.92831   0.95627
 Alpha virt. eigenvalues --    1.01292   1.33320   1.40451   1.70182   1.73105

 Mulliken charges:
               1
     1  S   -0.035895
     2  H    0.017947
     3  H    0.017947
 Sum of Mulliken charges =   0.00000

 Dipole moment (field-independent basis, Debye):
    X=              0.0000    Y=              0.0000    Z=             -1.2435  Tot=              1.2435
 Quadrupole moment (field-independent basis, Debye-Ang):
   XX=            -16.5779   YY=            -12.9755   ZZ=            -13.1091
   XY=              0.0000   XZ=              0.0000   YZ=              0.0000

 Normal termination of Gaussian 09 at Tue Sep 30 07:34:33 2014.
