 Gaussian 09, Revision D.01,
 Gaussian 09:  ES64L-G09RevD.01 24-Apr-2013

 -----------------
 #RHF 6-31G(d',p')
 -----------------

 ------------------
 H2S.r1.20theta97.0
 ------------------
 Symbolic Z-matrix:
 Charge =  0 Multiplicity = 1

                         Standard orientation:
 ---------------------------------------------------------------------
 Center     Atomic      Atomic             Coordinates (Angstroms)
 Number     Number       Type             X           Y           Z
 ---------------------------------------------------------------------
      1         16           0        0.000000    0.000000    0.088349
      2          1           0        0.000000    0.898747   -0.706795
      3          1           0        0.000000   -0.898747   -0.706795
 ---------------------------------------------------------------------

 SCF Done:  E(RHF) =  -398.652669754     A.U. after    9 cycles

 The electronic state is 1-A1.
 Alpha  occ. eigenvalues --  -91.93282  -8.95358  -6.63708  -6.63545  -6.63236
 Alpha  occ. eigenvalues --   -1.02462  -0.64392  -0.49942  -0.38465
 Alpha virt. eigenvalues --    0.20282   0.25492   0.43171   0.46731   0.52002
 Alpha virt. eigenvalues --    0.53483   0.85403   0.89423   0.91517   0.95299
 Alpha virt. eigenvalues --    1.02338   1.39486   1.57972   1.69681   1.77217

 Mulliken charges:
               1
     1  S   -0.043559
     2  H    0.021779
     3  H    0.021779
 Sum of Mulliken charges =   0.00000

 Dipole moment (field-independent basis, Debye):
    X=              0.0000    Y=              0.0000    Z=             -1.3980  Tot=              1.3980
 Quadrupole moment (field-independent basis, Debye-Ang):
   XX=            -16.3057   YY=            -12.0235   ZZ=            -13.7884
   XY=              0.0000   XZ=              0.0000   YZ=              0.0000

 Normal termination of Gaussian 09 at Tue Sep 30 07:32:41 2014.
