 Gaussian 09, Revision D.01,
 Gaussian 09:  ES64L-G09RevD.01 24-Apr-2013

 -----------------
 #RHF 6-31G(d',p')
 -----------------

 ------------------
 H2S.r0.65theta73.0
 ------------------
 Symbolic Z-matrix:
 Charge =  0 Multiplicity = 1

                         Standard orientation:
 ---------------------------------------------------------------------
 Center     Atomic      Atomic             Coordinates (Angstroms)
 Number     Number       Type             X           Y           Z
 ---------------------------------------------------------------------
      1         16           0        0.000000    0.000000    0.058056
      2          1           0        0.000000    0.386635   -0.464451
      3          1           0        0.000000   -0.386635   -0.464451
 ---------------------------------------------------------------------

 SCF Done:  E(RHF) =  -396.493854375     A.U. after   10 cycles

 The electronic state is 1-A1.
 Alpha  occ. eigenvalues --  -91.88611  -9.04589  -6.74232  -6.71657  -6.67499
 Alpha  occ. eigenvalues --   -1.30147  -0.68467  -0.56759  -0.41030
 Alpha virt. eigenvalues --    0.20853   0.23324   0.47794   0.50801   0.52250
 Alpha virt. eigenvalues --    0.60857   0.87505   0.88111   0.92233   0.95668
 Alpha virt. eigenvalues --    1.01305   2.01365   2.03606   2.16620   2.26037

 Mulliken charges:
               1
     1  S    0.501530
     2  H   -0.250765
     3  H   -0.250765
 Sum of Mulliken charges =   0.00000

 Dipole moment (field-independent basis, Debye):
    X=              0.0000    Y=              0.0000    Z=             -1.0294  Tot=              1.0294
 Quadrupole moment (field-independent basis, Debye-Ang):
   XX=            -14.8045   YY=            -12.2305   ZZ=            -12.5140
   XY=              0.0000   XZ=              0.0000   YZ=              0.0000

 Normal termination of Gaussian 09 at Tue Sep 30 07:21:08 2014.
