 Gaussian 09, Revision D.01,
 Gaussian 09:  ES64L-G09RevD.01 24-Apr-2013

 -----------------
 #RHF 6-31G(d',p')
 -----------------

 -------------------
 H2S.r0.75theta108.0
 -------------------
 Symbolic Z-matrix:
 Charge =  0 Multiplicity = 1

                         Standard orientation:
 ---------------------------------------------------------------------
 Center     Atomic      Atomic             Coordinates (Angstroms)
 Number     Number       Type             X           Y           Z
 ---------------------------------------------------------------------
      1         16           0        0.000000    0.000000    0.048982
      2          1           0        0.000000    0.606763   -0.391857
      3          1           0        0.000000   -0.606763   -0.391857
 ---------------------------------------------------------------------

 SCF Done:  E(RHF) =  -397.467495909     A.U. after   10 cycles

 The electronic state is 1-A1.
 Alpha  occ. eigenvalues --  -91.86368  -8.97712  -6.67221  -6.65135  -6.63096
 Alpha  occ. eigenvalues --   -1.20588  -0.81477  -0.49484  -0.40151
 Alpha virt. eigenvalues --    0.23589   0.23829   0.47507   0.48644   0.51706
 Alpha virt. eigenvalues --    0.52041   0.87142   0.89929   0.90871   0.97083
 Alpha virt. eigenvalues --    1.02913   1.88753   1.90997   2.09718   2.09765

 Mulliken charges:
               1
     1  S    0.406260
     2  H   -0.203130
     3  H   -0.203130
 Sum of Mulliken charges =   0.00000

 Dipole moment (field-independent basis, Debye):
    X=              0.0000    Y=              0.0000    Z=             -1.4572  Tot=              1.4572
 Quadrupole moment (field-independent basis, Debye-Ang):
   XX=            -15.0122   YY=            -11.6296   ZZ=            -13.4813
   XY=              0.0000   XZ=              0.0000   YZ=              0.0000

 Normal termination of Gaussian 09 at Tue Sep 30 07:23:34 2014.
