 Gaussian 09, Revision D.01,
 Gaussian 09:  ES64L-G09RevD.01 24-Apr-2013

 -----------------
 #RHF 6-31G(d',p')
 -----------------

 -------------------
 H2S.r1.80theta109.0
 -------------------
 Symbolic Z-matrix:
 Charge =  0 Multiplicity = 1

                         Standard orientation:
 ---------------------------------------------------------------------
 Center     Atomic      Atomic             Coordinates (Angstroms)
 Number     Number       Type             X           Y           Z
 ---------------------------------------------------------------------
      1         16           0        0.000000    0.000000    0.116141
      2          1           0        0.000000    1.465408   -0.929125
      3          1           0        0.000000   -1.465408   -0.929125
 ---------------------------------------------------------------------

 SCF Done:  E(RHF) =  -398.549318500     A.U. after   10 cycles

 The electronic state is 1-A1.
 Alpha  occ. eigenvalues --  -92.00420  -9.00378  -6.68541  -6.68461  -6.68199
 Alpha  occ. eigenvalues --   -0.90646  -0.49791  -0.43717  -0.38622
 Alpha virt. eigenvalues --    0.04648   0.08296   0.49376   0.52994   0.53153
 Alpha virt. eigenvalues --    0.55883   0.93775   0.94139   0.99545   0.99758
 Alpha virt. eigenvalues --    1.01721   1.06302   1.09901   1.53737   1.54833

 Mulliken charges:
               1
     1  S   -0.138666
     2  H    0.069333
     3  H    0.069333
 Sum of Mulliken charges =   0.00000

 Dipole moment (field-independent basis, Debye):
    X=              0.0000    Y=              0.0000    Z=             -1.1062  Tot=              1.1062
 Quadrupole moment (field-independent basis, Debye-Ang):
   XX=            -17.6671   YY=            -11.4801   ZZ=            -14.5011
   XY=              0.0000   XZ=              0.0000   YZ=              0.0000

 Normal termination of Gaussian 09 at Tue Sep 30 07:45:21 2014.
