 Gaussian 09, Revision D.01,
 Gaussian 09:  ES64L-G09RevD.01 24-Apr-2013

 -----------------
 #RHF 6-31G(d',p')
 -----------------

 -------------------
 H2S.r1.25theta119.0
 -------------------
 Symbolic Z-matrix:
 Charge =  0 Multiplicity = 1

                         Standard orientation:
 ---------------------------------------------------------------------
 Center     Atomic      Atomic             Coordinates (Angstroms)
 Number     Number       Type             X           Y           Z
 ---------------------------------------------------------------------
      1         16           0        0.000000    0.000000    0.070491
      2          1           0        0.000000    1.077036   -0.563932
      3          1           0        0.000000   -1.077036   -0.563932
 ---------------------------------------------------------------------

 SCF Done:  E(RHF) =  -398.650254735     A.U. after   10 cycles

 The electronic state is 1-A1.
 Alpha  occ. eigenvalues --  -91.93942  -8.95677  -6.64079  -6.63840  -6.63641
 Alpha  occ. eigenvalues --   -1.00422  -0.66658  -0.45746  -0.38319
 Alpha virt. eigenvalues --    0.18740   0.22917   0.42394   0.45733   0.52815
 Alpha virt. eigenvalues --    0.53566   0.88832   0.89872   0.94179   0.97742
 Alpha virt. eigenvalues --    0.98900   1.36983   1.42839   1.67226   1.74366

 Mulliken charges:
               1
     1  S   -0.098603
     2  H    0.049301
     3  H    0.049301
 Sum of Mulliken charges =   0.00000

 Dipole moment (field-independent basis, Debye):
    X=              0.0000    Y=              0.0000    Z=             -1.5607  Tot=              1.5607
 Quadrupole moment (field-independent basis, Debye-Ang):
   XX=            -16.4680   YY=            -11.1820   ZZ=            -14.6467
   XY=              0.0000   XZ=              0.0000   YZ=              0.0000

 Normal termination of Gaussian 09 at Tue Sep 30 07:33:59 2014.
