 Gaussian 09, Revision D.01,
 Gaussian 09:  ES64L-G09RevD.01 24-Apr-2013

 -----------------
 #RHF 6-31G(d',p')
 -----------------

 -------------------
 H2S.r1.60theta101.0
 -------------------
 Symbolic Z-matrix:
 Charge =  0 Multiplicity = 1

                         Standard orientation:
 ---------------------------------------------------------------------
 Center     Atomic      Atomic             Coordinates (Angstroms)
 Number     Number       Type             X           Y           Z
 ---------------------------------------------------------------------
      1         16           0        0.000000    0.000000    0.113081
      2          1           0        0.000000    1.234599   -0.904645
      3          1           0        0.000000   -1.234599   -0.904645
 ---------------------------------------------------------------------

 SCF Done:  E(RHF) =  -398.621976539     A.U. after   10 cycles

 The electronic state is 1-A1.
 Alpha  occ. eigenvalues --  -91.98811  -8.99030  -6.67244  -6.67149  -6.66926
 Alpha  occ. eigenvalues --   -0.92870  -0.53505  -0.46509  -0.38433
 Alpha virt. eigenvalues --    0.11372   0.12009   0.50104   0.50346   0.53303
 Alpha virt. eigenvalues --    0.53929   0.91412   0.92735   0.95822   0.97023
 Alpha virt. eigenvalues --    0.99582   1.13699   1.22130   1.54615   1.59544

 Mulliken charges:
               1
     1  S   -0.107384
     2  H    0.053692
     3  H    0.053692
 Sum of Mulliken charges =   0.00000

 Dipole moment (field-independent basis, Debye):
    X=              0.0000    Y=              0.0000    Z=             -1.2358  Tot=              1.2358
 Quadrupole moment (field-independent basis, Debye-Ang):
   XX=            -17.2893   YY=            -11.9960   ZZ=            -14.1458
   XY=              0.0000   XZ=              0.0000   YZ=              0.0000

 Normal termination of Gaussian 09 at Tue Sep 30 07:41:04 2014.
