 Gaussian 09, Revision D.01,
 Gaussian 09:  ES64L-G09RevD.01 24-Apr-2013

 -----------------
 #RHF 6-31G(d',p')
 -----------------

 ------------------
 H2S.r0.70theta88.0
 ------------------
 Symbolic Z-matrix:
 Charge =  0 Multiplicity = 1

                         Standard orientation:
 ---------------------------------------------------------------------
 Center     Atomic      Atomic             Coordinates (Angstroms)
 Number     Number       Type             X           Y           Z
 ---------------------------------------------------------------------
      1         16           0        0.000000    0.000000    0.055949
      2          1           0        0.000000    0.486261   -0.447589
      3          1           0        0.000000   -0.486261   -0.447589
 ---------------------------------------------------------------------

 SCF Done:  E(RHF) =  -397.053733917     A.U. after   10 cycles

 The electronic state is 1-A1.
 Alpha  occ. eigenvalues --  -91.86755  -9.00163  -6.68696  -6.68587  -6.64535
 Alpha  occ. eigenvalues --   -1.24654  -0.75204  -0.53510  -0.40417
 Alpha virt. eigenvalues --    0.22399   0.22998   0.48504   0.50309   0.51412
 Alpha virt. eigenvalues --    0.58104   0.85264   0.88124   0.93477   0.94376
 Alpha virt. eigenvalues --    1.04951   1.93919   1.96581   2.10521   2.28796

 Mulliken charges:
               1
     1  S    0.440961
     2  H   -0.220481
     3  H   -0.220481
 Sum of Mulliken charges =   0.00000

 Dipole moment (field-independent basis, Debye):
    X=              0.0000    Y=              0.0000    Z=             -1.1955  Tot=              1.1955
 Quadrupole moment (field-independent basis, Debye-Ang):
   XX=            -14.9242   YY=            -11.9085   ZZ=            -12.9314
   XY=              0.0000   XZ=              0.0000   YZ=              0.0000

 Normal termination of Gaussian 09 at Tue Sep 30 07:22:19 2014.
