 Gaussian 09, Revision D.01,
 Gaussian 09:  ES64L-G09RevD.01 24-Apr-2013

 -----------------
 #RHF 6-31G(d',p')
 -----------------

 -------------------
 H2S.r1.70theta104.0
 -------------------
 Symbolic Z-matrix:
 Charge =  0 Multiplicity = 1

                         Standard orientation:
 ---------------------------------------------------------------------
 Center     Atomic      Atomic             Coordinates (Angstroms)
 Number     Number       Type             X           Y           Z
 ---------------------------------------------------------------------
      1         16           0        0.000000    0.000000    0.116292
      2          1           0        0.000000    1.339618   -0.930333
      3          1           0        0.000000   -1.339618   -0.930333
 ---------------------------------------------------------------------

 SCF Done:  E(RHF) =  -398.587476608     A.U. after   10 cycles

 The electronic state is 1-A1.
 Alpha  occ. eigenvalues --  -91.99691  -8.99753  -6.67941  -6.67854  -6.67612
 Alpha  occ. eigenvalues --   -0.91601  -0.51493  -0.45221  -0.38520
 Alpha virt. eigenvalues --    0.08026   0.10017   0.49716   0.51590   0.53146
 Alpha virt. eigenvalues --    0.55267   0.92293   0.93210   0.97661   0.98532
 Alpha virt. eigenvalues --    1.00780   1.09606   1.15478   1.54093   1.56871

 Mulliken charges:
               1
     1  S   -0.122940
     2  H    0.061470
     3  H    0.061470
 Sum of Mulliken charges =   0.00000

 Dipole moment (field-independent basis, Debye):
    X=              0.0000    Y=              0.0000    Z=             -1.1765  Tot=              1.1765
 Quadrupole moment (field-independent basis, Debye-Ang):
   XX=            -17.4879   YY=            -11.8124   ZZ=            -14.2778
   XY=              0.0000   XZ=              0.0000   YZ=              0.0000

 Normal termination of Gaussian 09 at Tue Sep 30 07:43:11 2014.
