 Gaussian 09, Revision D.01,
 Gaussian 09:  ES64L-G09RevD.01 24-Apr-2013

 -----------------
 #RHF 6-31G(d',p')
 -----------------

 -------------------
 H2S.r1.55theta102.0
 -------------------
 Symbolic Z-matrix:
 Charge =  0 Multiplicity = 1

                         Standard orientation:
 ---------------------------------------------------------------------
 Center     Atomic      Atomic             Coordinates (Angstroms)
 Number     Number       Type             X           Y           Z
 ---------------------------------------------------------------------
      1         16           0        0.000000    0.000000    0.108383
      2          1           0        0.000000    1.204576   -0.867064
      3          1           0        0.000000   -1.204576   -0.867064
 ---------------------------------------------------------------------

 SCF Done:  E(RHF) =  -398.636451879     A.U. after   10 cycles

 The electronic state is 1-A1.
 Alpha  occ. eigenvalues --  -91.98274  -8.98601  -6.66831  -6.66731  -6.66518
 Alpha  occ. eigenvalues --   -0.93621  -0.54905  -0.46788  -0.38380
 Alpha virt. eigenvalues --    0.12734   0.13345   0.49741   0.50267   0.52811
 Alpha virt. eigenvalues --    0.53388   0.91348   0.92285   0.95584   0.96020
 Alpha virt. eigenvalues --    0.99131   1.16055   1.25801   1.54818   1.61372

 Mulliken charges:
               1
     1  S   -0.101709
     2  H    0.050855
     3  H    0.050855
 Sum of Mulliken charges =   0.00000

 Dipole moment (field-independent basis, Debye):
    X=              0.0000    Y=              0.0000    Z=             -1.2692  Tot=              1.2692
 Quadrupole moment (field-independent basis, Debye-Ang):
   XX=            -17.1846   YY=            -11.9368   ZZ=            -14.1887
   XY=              0.0000   XZ=              0.0000   YZ=              0.0000

 Normal termination of Gaussian 09 at Tue Sep 30 07:40:02 2014.
