 Gaussian 09, Revision D.01,
 Gaussian 09:  ES64L-G09RevD.01 24-Apr-2013

 -----------------
 #RHF 6-31G(d',p')
 -----------------

 -------------------
 H2S.r0.65theta126.0
 -------------------
 Symbolic Z-matrix:
 Charge =  0 Multiplicity = 1

                         Standard orientation:
 ---------------------------------------------------------------------
 Center     Atomic      Atomic             Coordinates (Angstroms)
 Number     Number       Type             X           Y           Z
 ---------------------------------------------------------------------
      1         16           0        0.000000    0.000000    0.032788
      2          1           0        0.000000    0.579154   -0.262306
      3          1           0        0.000000   -0.579154   -0.262306
 ---------------------------------------------------------------------

 SCF Done:  E(RHF) =  -396.524544682     A.U. after   10 cycles

 The electronic state is 1-A1.
 Alpha  occ. eigenvalues --  -91.88735  -9.04820  -6.76875  -6.70191  -6.68091
 Alpha  occ. eigenvalues --   -1.22441  -0.86534  -0.46783  -0.41199
 Alpha virt. eigenvalues --    0.20093   0.24064   0.50118   0.50633   0.53377
 Alpha virt. eigenvalues --    0.53512   0.86519   0.88022   0.92798   0.98661
 Alpha virt. eigenvalues --    0.98898   1.95650   2.04163   2.14863   2.22923

 Mulliken charges:
               1
     1  S    0.668668
     2  H   -0.334334
     3  H   -0.334334
 Sum of Mulliken charges =   0.00000

 Dipole moment (field-independent basis, Debye):
    X=              0.0000    Y=              0.0000    Z=             -1.4685  Tot=              1.4685
 Quadrupole moment (field-independent basis, Debye-Ang):
   XX=            -14.6223   YY=            -11.6115   ZZ=            -13.6829
   XY=              0.0000   XZ=              0.0000   YZ=              0.0000

 Normal termination of Gaussian 09 at Tue Sep 30 07:21:43 2014.
