 Gaussian 09, Revision D.01,
 Gaussian 09:  ES64L-G09RevD.01 24-Apr-2013

 -----------------
 #RHF 6-31G(d',p')
 -----------------

 ------------------
 H2S.r1.20theta76.0
 ------------------
 Symbolic Z-matrix:
 Charge =  0 Multiplicity = 1

                         Standard orientation:
 ---------------------------------------------------------------------
 Center     Atomic      Atomic             Coordinates (Angstroms)
 Number     Number       Type             X           Y           Z
 ---------------------------------------------------------------------
      1         16           0        0.000000    0.000000    0.105068
      2          1           0        0.000000    0.738794   -0.840545
      3          1           0        0.000000   -0.738794   -0.840545
 ---------------------------------------------------------------------

 SCF Done:  E(RHF) =  -398.639519588     A.U. after   10 cycles

 The electronic state is 1-A1.
 Alpha  occ. eigenvalues --  -91.93423  -8.95477  -6.63737  -6.63721  -6.63311
 Alpha  occ. eigenvalues --   -1.03598  -0.58636  -0.53890  -0.38576
 Alpha virt. eigenvalues --    0.18406   0.26050   0.42409   0.48379   0.51068
 Alpha virt. eigenvalues --    0.53439   0.84557   0.87236   0.91580   0.95348
 Alpha virt. eigenvalues --    1.03925   1.41736   1.48999   1.76049   1.76918

 Mulliken charges:
               1
     1  S   -0.021104
     2  H    0.010552
     3  H    0.010552
 Sum of Mulliken charges =   0.00000

 Dipole moment (field-independent basis, Debye):
    X=              0.0000    Y=              0.0000    Z=             -1.2379  Tot=              1.2379
 Quadrupole moment (field-independent basis, Debye-Ang):
   XX=            -16.3191   YY=            -12.8919   ZZ=            -12.9862
   XY=              0.0000   XZ=              0.0000   YZ=              0.0000

 Normal termination of Gaussian 09 at Tue Sep 30 07:32:27 2014.
