 Gaussian 09, Revision D.01,
 Gaussian 09:  ES64L-G09RevD.01 24-Apr-2013

 -----------------
 #RHF 6-31G(d',p')
 -----------------

 -------------------
 H2S.r1.70theta106.0
 -------------------
 Symbolic Z-matrix:
 Charge =  0 Multiplicity = 1

                         Standard orientation:
 ---------------------------------------------------------------------
 Center     Atomic      Atomic             Coordinates (Angstroms)
 Number     Number       Type             X           Y           Z
 ---------------------------------------------------------------------
      1         16           0        0.000000    0.000000    0.113676
      2          1           0        0.000000    1.357680   -0.909409
      3          1           0        0.000000   -1.357680   -0.909409
 ---------------------------------------------------------------------

 SCF Done:  E(RHF) =  -398.586275546     A.U. after    9 cycles

 The electronic state is 1-A1.
 Alpha  occ. eigenvalues --  -91.99654  -8.99721  -6.67909  -6.67822  -6.67581
 Alpha  occ. eigenvalues --   -0.91581  -0.51709  -0.44965  -0.38501
 Alpha virt. eigenvalues --    0.07691   0.10278   0.49767   0.51615   0.53159
 Alpha virt. eigenvalues --    0.54901   0.92467   0.93054   0.97958   0.98426
 Alpha virt. eigenvalues --    1.00917   1.09644   1.15250   1.54087   1.56981

 Mulliken charges:
               1
     1  S   -0.124521
     2  H    0.062261
     3  H    0.062261
 Sum of Mulliken charges =   0.00000

 Dipole moment (field-independent basis, Debye):
    X=              0.0000    Y=              0.0000    Z=             -1.1764  Tot=              1.1764
 Quadrupole moment (field-independent basis, Debye-Ang):
   XX=            -17.4903   YY=            -11.6946   ZZ=            -14.3732
   XY=              0.0000   XZ=              0.0000   YZ=              0.0000

 Normal termination of Gaussian 09 at Tue Sep 30 07:43:13 2014.
